# vtk DataFile Version 4.2
vtk output
ASCII
DATASET UNSTRUCTURED_GRID
POINTS 5120 float
18.8997 10.8741 41.0582 18.7596 9.97911 41.3564 18.0188 9.24022 41.4101 
17.2299 8.95239 41.8168 16.8098 9.4725 42.6356 16.1355 10.1128 42.8634 
15.3844 10.7831 42.6405 15.3836 12.0103 42.5335 14.9691 13.1034 42.4532 
14.6103 13.5572 41.6961 0.446488 36.7257 12.8647 1.49571 36.67 12.8415 
2.05521 37.4624 13.0609 2.43179 38.3732 13.2033 3.10789 39.0243 13.3236 
3.52456 38.6672 14.1679 3.50819 38.0155 14.8606 4.03364 37.8324 15.6613 
4.24135 37.6023 16.524 3.77907 37.5048 17.4371 25.2235 4.77476 34.5709 
26.1491 5.13779 34.698 27.0981 5.24464 34.5056 27.5524 6.13711 34.2553 
27.2411 7.02896 34.6209 26.498 7.34544 35.51 25.6361 6.84629 35.2386 
25.4591 6.35747 34.3812 25.0809 6.38873 33.5636 24.8316 5.78728 32.893 
25.6316 41.3682 10.3892 26.545 40.9602 10.4439 27.0852 41.0133 9.59029 
27.3532 41.7851 8.89232 27.1673 42.6639 8.58912 26.2386 42.846 8.25897 
25.5067 42.2466 8.41061 25.2225 41.3485 8.49427 25.2545 40.372 8.8794 
25.2669 39.4915 8.40728 18.7544 8.25881 43.7238 19.5753 8.66243 44.1151 
20.3182 8.93935 43.5305 20.8394 8.65843 42.7299 21.2608 8.00468 42.0167 
20.9924 7.43936 41.3239 20.5947 7.007 40.5379 20.1796 6.44505 39.7811 
19.2467 6.08589 39.5616 18.2261 5.85641 39.5557 6.64944 34.6678 17.974 
7.5447 34.3043 18.0624 7.96104 33.6006 17.4286 8.12227 32.634 17.1546 
7.32026 32.8311 16.7504 6.99269 32.8755 15.784 6.92708 32.6726 14.8593 
7.06626 32.1639 13.902 7.69312 31.4688 14.4377 7.62909 30.7931 13.7244 
23.9233 1.82344 27.6612 22.8927 2.1261 27.1836 22.8108 2.58842 26.3746 
22.5552 3.46772 26.0749 22.2181 4.23624 25.6092 21.8685 5.05933 25.1794 
21.8078 5.73945 24.4853 21.9981 7.21603 24.2552 22.0623 7.94376 25.0356 
22.6259 8.5648 25.5081 39.1354 32.2092 44.4862 39.5819 31.3658 44.3827 
39.7256 30.5026 44.8123 40.3488 29.9626 45.2718 41.1211 29.7091 45.7858 
40.8271 29.5724 0.123945 40.4424 29.0459 0.893685 41.0975 28.9141 1.66739 
42.047 29.3264 1.83057 42.4972 29.9183 2.38487 22.7567 2.62357 25.3734 
22.7058 3.45733 24.8412 22.6911 4.13406 24.153 23.0105 4.97032 23.6406 
22.5715 5.80102 23.8691 22.883 6.44361 24.668 23.6481 6.82347 25.165 
24.4702 7.19002 25.6491 25.1951 6.65193 26.2468 25.1076 5.93428 26.9982 
5.5216 31.5185 11.9227 5.06901 30.9504 11.2903 4.2313 31.2737 10.747 
3.77929 32.1231 10.7295 3.63157 32.2953 11.6528 2.81271 33.2604 12.243 
3.33728 34.1479 12.2614 3.66862 35.1178 11.8826 4.09375 36.0091 11.9479 
4.49406 36.5431 12.6607 3.18711 0.511233 33.3206 3.68165 1.39453 32.7293 
3.40473 2.39997 32.5598 2.96393 3.2158 32.7413 2.68325 4.09159 32.8348 
2.91432 5.06161 32.8967 3.11366 5.89191 33.4206 3.09098 6.35894 34.3822 
2.22687 6.79198 34.7817 1.53606 7.36158 35.1488 25.1928 3.24238 29.1505 
25.0849 3.30955 28.1908 25.6041 2.7346 27.3367 25.7802 2.81056 26.3342 
26.4387 3.45929 25.7588 27.3358 3.59947 25.3825 28.3923 3.72777 25.3423 
29.1717 4.22188 25.6 29.8547 4.93455 25.4101 30.6205 5.56956 25.1057 
3.59062 36.972 15.3611 3.52651 36.9652 16.3946 2.40973 37.0988 16.3802 
1.41717 37.1737 16.2435 0.662681 36.7799 15.7287 1.01645 36.52 14.9017 
1.8748 36.5606 15.4145 2.78444 36.2544 15.8361 3.2785 35.8346 16.5751 
3.04385 36.7811 17.3619 46.0047 2.33376 36.0004 46.6709 2.96572 35.114 
46.6758 3.78574 34.466 0.615239 3.85423 35.0804 1.48395 4.269 35.3906 
2.21005 4.36141 34.7201 2.89642 4.81798 35.1679 3.33893 5.02526 36.0281 
3.61666 5.44841 36.8657 3.74052 5.9778 37.7189 46.7333 33.329 17.8488 
0.484706 32.5075 17.8563 1.27822 32.6955 18.3607 1.66744 33.1634 19.066 
2.07696 33.7255 19.8114 2.31511 34.6751 19.9723 1.97206 35.478 20.2562 
1.9471 36.4363 20.6914 2.86781 37.0412 20.6644 3.40796 37.3922 19.8103 
41.0136 31.1979 44.9959 41.1047 30.892 45.9784 40.9791 30.4948 0.0706198 
40.6889 30.2615 0.991675 40.6121 29.8335 1.86578 41.3821 30.1675 2.34909 
42.0788 30.719 2.74391 42.2365 31.6891 2.95451 42.5244 32.6494 3.49555 
42.7171 33.1621 2.74755 28.26 9.08125 26.8714 29.3898 8.61507 26.8073 
29.1856 7.75827 26.3366 28.6875 7.60585 25.5016 28.0806 7.07653 24.8024 
27.4218 7.09294 24.0681 26.5667 6.81944 23.6089 25.7411 6.34231 23.0116 
25.1035 5.60122 23.0065 24.7325 4.72644 23.2031 4.24074 36.0109 13.6388 
4.86645 36.7962 14.0177 5.33471 37.0772 14.8791 5.64972 37.0361 15.844 
5.41352 37.7863 16.6434 5.03129 38.4525 17.1668 4.5932 39.0431 17.804 
3.71951 39.682 18.2827 2.95666 39.2363 18.9116 2.1184 38.9413 19.2102 
27.3661 6.55871 21.1536 26.4429 6.71598 20.9797 25.3818 6.68476 20.9362 
24.3433 6.37031 20.9193 23.5508 5.88387 20.605 22.8016 5.38387 20.8667 
22.0907 4.774 21.1754 21.0925 4.51602 21.2302 20.4019 4.92442 21.7814 
20.0658 5.81389 21.6497 26.4775 41.8966 10.0318 26.3165 41.8473 9.07944 
26.3377 41.6458 8.16349 25.7315 40.8632 7.82794 24.8222 40.4503 7.92844 
23.8328 40.15 8.00562 23.3255 39.7157 8.66899 23.7397 39.1749 9.32834 
24.7862 39.2594 9.30108 25.8336 39.2779 9.21509 19.4886 8.38884 22.1361 
19.4742 9.21681 22.6279 20.1567 9.65261 23.0859 20.9968 10.2598 23.1739 
21.9527 10.533 23.3013 22.5086 10.9306 24.2118 23.2925 11.2 24.9359 
24.1657 11.4673 25.099 24.7013 12.1734 25.6863 24.8749 12.5695 26.5875 
7.47876 34.0499 19.198 7.05175 34.6371 19.9093 6.57037 35.4119 19.9017 
5.94418 36.3139 19.8954 5.35972 37.0667 19.7929 4.4107 37.0948 19.475 
3.82424 37.4765 18.825 2.90589 37.8719 19.1102 2.10021 36.6535 19.0194 
1.55988 35.7533 19.1707 20.8123 3.06383 22.7328 19.9653 3.48492 23.1944 
19.0064 3.86455 23.3649 18.8156 4.93781 23.4794 18.7852 5.91755 23.3037 
18.6852 6.78749 23.1078 18.4914 7.77216 22.9367 18.5554 8.79859 22.8461 
19.1448 9.5015 23.4874 19.3147 10.4001 23.8141 17.6167 8.78782 39.3034 
16.8522 9.42661 39.2288 16.1197 9.8734 39.6579 15.7842 10.5839 40.4147 
15.937 11.3827 40.9538 15.9917 12.1829 41.4023 15.9092 13.1468 41.6528 
15.4579 13.9387 42.1641 15.2409 14.7901 41.8011 14.6933 15.575 41.3051 
18.292 3.66623 26.7205 18.4392 2.87326 27.2784 18.8845 2.14754 27.7137 
19.306 1.81414 28.5315 19.7906 1.66467 29.4554 20.3259 1.77096 30.2664 
20.7503 2.52366 30.746 21.2574 3.38987 30.7238 22.2606 3.9152 30.7032 
23.2769 3.72605 30.847 28.9402 10.0989 24.4595 28.9869 10.0526 23.3529 
28.1119 10.4186 23.4203 27.9595 11.3518 23.892 27.6108 12.0097 24.4771 
27.4332 12.048 25.4633 27.4969 11.9274 26.5249 27.5982 11.6915 27.549 
27.5971 11.2478 28.4268 27.4586 10.4439 29.3691 14.1715 16.2519 40.9459 
13.4419 16.4484 40.1208 13.0685 16.3408 39.0947 12.9705 15.7053 38.3024 
13.1384 14.8501 37.8668 13.2937 13.8982 38.0561 13.003 12.8557 37.9112 
13.0509 12.3825 38.8361 13.0903 11.7861 39.6399 12.9034 10.8623 39.5301 
10.7064 9.6623 39.4891 10.2004 10.4873 39.3747 9.95377 11.3301 40.0095 
9.79928 12.2028 40.423 10.4245 12.7435 40.8028 11.318 13.2423 40.8195 
12.0901 12.6815 41.026 12.4368 13.6354 41.459 12.0803 14.5155 41.4318 
11.4798 14.3517 40.6674 46.0678 46.7116 40.469 45.7436 46.0947 39.6732 
45.15 46.1774 38.9236 44.2836 45.4418 38.0516 44.3933 45.7652 37.0857 
43.7705 46.0843 36.3286 43.9521 46.4417 35.3463 44.559 46.3026 34.5539 
45.0737 46.4509 33.7007 45.7648 46.4193 33.0022 24.0009 5.07375 26.338 
23.8437 5.05851 25.2304 24.7363 4.63065 24.699 25.3664 4.48792 24.0316 
26.1538 3.88419 23.801 27.2687 3.74264 23.9075 28.0489 4.02547 23.3265 
28.4005 4.4883 22.4823 28.6118 5.30272 21.8725 28.2819 6.08576 21.3689 
24.9212 28.7901 4.39779 24.449 27.9322 4.94315 24.3898 26.9986 5.49572 
25.1874 27.6866 5.83805 25.1956 28.6766 5.6768 25.2086 29.6964 5.60715 
24.5865 30.3647 5.40145 23.565 30.3688 5.25379 23.9158 29.9373 6.16084 
24.8112 29.474 6.49345 11.7295 10.7624 41.8792 11.6969 10.1683 42.5978 
11.0421 9.27455 42.1801 10.6251 8.80842 41.3411 10.8668 8.97488 40.4059 
11.5309 8.40709 39.7165 11.7015 8.37794 40.7387 11.8577 8.46588 41.6846 
12.2315 9.05031 42.3452 12.259 9.32577 43.3323 1.92139 27.9203 13.9373 
1.02808 28.3135 13.8532 0.205095 28.6855 13.6902 46.5756 29.5598 13.9248 
46.1829 30.3842 14.3267 45.5233 31.1364 14.856 46.3203 31.6388 15.23 
0.51292 31.8067 15.5889 0.476728 32.7378 15.8065 0.54244 33.6422 15.4813 
24.401 3.70878 32.1896 24.826 4.25149 33.0055 25.6701 4.33612 33.5897 
26.7802 4.1585 34.1072 27.5068 4.37602 34.5837 28.4623 4.35644 34.3609 
28.9577 4.83945 33.6964 28.7521 5.58792 32.5735 29.1292 5.78228 31.7112 
29.6895 5.99426 30.8662 18.2761 6.67573 28.6892 17.9301 6.22128 27.9009 
17.9825 6.42204 26.8659 18.2928 6.91541 26.079 18.68 7.85127 25.8067 
18.9831 8.72666 25.6661 19.3912 9.62682 25.7551 20.1577 10.1692 25.722 
20.2692 11.0793 26.1095 20.1053 12.0888 26.4974 23.2026 45.4856 26.6223 
22.7199 46.3125 26.5618 22.093 0.235601 26.7282 21.3164 0.684413 26.4727 
20.9638 1.60611 26.2161 20.2411 2.18639 25.9596 19.8398 3.16936 25.515 
19.8178 4.11154 25.3534 19.992 5.02604 25.0858 20.0372 5.8918 25.5471 
16.2232 17.2451 38.1919 16.99 16.8627 37.6635 17.9844 16.4207 37.379 
19.063 16.1338 37.5369 19.5751 16.4618 38.3148 19.9621 16.469 39.1937 
20.3747 15.8237 39.8267 20.613 14.9551 40.0885 20.7467 14.0605 40.4902 
20.8357 12.9245 40.5044 28.0349 5.2432 27.6486 27.6522 4.32195 27.6893 
26.968 3.46853 27.9617 26.3379 3.94458 28.5002 25.5717 4.22139 28.9999 
24.5647 3.88136 28.899 23.8863 3.62994 28.1195 24.1057 4.063 27.1655 
24.6659 4.23363 26.4019 24.2539 4.12506 25.4426 46.5891 30.1751 19.1601 
45.8315 30.7497 19.1272 45.0403 31.2125 18.8197 45.2171 32.166 19.0218 
45.9321 32.6018 19.3761 46.6725 33.1246 19.6775 0.367918 34.0464 20.0508 
46.5462 34.1807 20.7953 46.5136 33.1816 20.6732 46.5557 32.2242 20.2631 
20.276 8.43522 39.2162 20.3857 7.3984 39.447 19.7186 7.37544 40.196 
18.5611 7.52385 40.1601 17.8788 7.01482 39.6381 17.3739 6.39507 39.1435 
16.9108 6.35583 38.309 17.2752 6.19677 37.3773 17.4239 6.56662 36.3615 
17.3229 6.07147 35.4868 25.1416 28.7642 3.31757 24.2424 28.9768 3.02142 
23.3333 29.0948 2.59561 22.4153 28.5309 2.76294 21.7106 27.9153 2.72035 
21.39 26.9564 2.85987 21.3571 25.9881 2.73858 21.9619 25.2228 2.87683 
22.473 24.5762 2.44615 23.0685 24.1465 1.74747 23.0713 3.02853 28.9398 
[...]
POINT_DATA 5120
VECTORS mag_moments float
-0.314178 -2.20134 0.235369 0.0850461 -2.23442 -0.0113491 -1.9859 -0.964449 0.354994 
-0.740258 -0.0752533 2.10864 -1.13854 1.89894 0.312676 -1.41804 1.7236 -0.135595 
-0.807162 2.05095 0.376954 -0.637169 1.94772 -0.894653 -0.423467 1.70731 -1.38049 
-1.59702 1.43548 -0.623622 2.19243 -0.118471 -0.423346 1.58459 1.51919 0.425616 
1.03955 1.9458 0.36497 0.83297 1.93037 -0.761468 1.82931 0.295916 1.25142 
0.337258 -0.657427 2.11046 0.667083 -1.42952 1.58477 1.87597 -0.0795289 1.21425 
-1.15738 -0.97728 1.64481 0.255311 1.0791 1.94174 2.23336 -0.00384462 0.110048 
2.23152 0.0462355 -0.134866 1.91643 1.14195 -0.152387 0.396612 2.2003 0.0372592 
-0.402477 1.96416 0.990002 -2.17315 -0.317071 0.420584 -1.01891 -1.41262 -1.40226 
-0.709994 0.0303384 -2.12014 -0.542305 0.193777 -2.16064 0.228529 -1.72912 -1.39926 
1.82038 -0.0584894 1.29722 2.14011 0.628486 0.157904 1.31458 1.42331 -1.11627 
0.392493 1.7719 -1.30626 -1.46284 1.52295 -0.735341 -1.72327 -1.41541 -0.164222 
-1.80713 -1.16766 0.60899 -0.338504 -2.15762 0.479691 0.624428 -2.12811 -0.285037 
0.321687 -1.47794 -1.64688 0.757668 1.02343 1.83808 2.01505 0.945503 -0.213526 
1.03256 0.126613 -1.97934 1.55114 -0.385092 -1.56386 -0.274764 -1.2608 -1.82617 
-0.959881 -1.00509 -1.75169 -1.33931 -0.889801 -1.55386 -1.45312 -1.61848 -0.51861 
-2.19029 -0.317143 0.319455 -2.19824 0.286992 -0.292199 2.0637 -0.565879 0.648785 
1.22157 -1.51464 -1.10165 0.360451 -1.98583 -0.962584 -0.674168 -1.51206 -1.50306 
-1.42771 0.989396 -1.4081 -0.739535 -1.1017 -1.79982 -0.0903006 -1.06405 -1.9646 
1.70501 -1.36457 -0.4805 -0.219836 -1.94192 -1.08656 -0.965 -1.13861 -1.66504 
-1.84951 -1.11091 -0.587513 -1.0477 0.82234 -1.79613 -0.0132554 1.34237 -1.78826 
-0.178433 1.6362 -1.51361 -0.855685 2.02425 -0.412571 0.0584602 1.11603 -1.93676 
0.238237 2.19932 -0.325931 0.386854 2.13935 0.522999 1.38643 1.20293 1.27702 
1.22198 1.81198 0.472776 -0.0740758 -2.21845 0.270153 -0.21087 -2.00551 0.966164 
1.12312 -1.00033 1.65468 1.31164 -1.55296 0.931634 1.19729 -0.593995 1.79267 
-1.9356 -0.742033 0.838364 0.54681 -0.232572 2.15567 2.08949 0.794673 0.050187 
1.9837 0.503748 0.900654 1.19845 1.30128 1.36762 -0.200953 1.36771 -1.75755 
-0.230643 1.73866 -1.38703 1.52648 1.22868 -1.07713 -0.290018 2.12308 -0.639066 
-0.338285 2.10819 0.664162 0.161347 1.37517 1.75581 1.97237 0.550591 0.898122 
1.82243 0.294344 1.26179 0.419802 -1.34653 1.73511 0.817924 -2.08065 -0.043491 
-0.246616 -1.20485 -1.86749 -1.80298 -0.777623 -1.06985 -1.75472 1.111 -0.828638 
-0.231401 1.70685 1.42587 -1.38726 0.590272 1.65139 1.35605 1.69645 0.532154 
0.25076 2.2213 0.0542569 0.711201 2.11503 -0.144307 1.64991 1.41943 0.512839 
0.902551 1.52935 1.35886 1.0101 1.69768 -1.04764 0.772315 1.71626 -1.20748 
-1.56539 1.56796 0.301791 -0.527269 2.128 0.440008 0.16976 2.2214 -0.191248 
0.22894 2.12917 0.643595 0.0949321 1.77897 1.35139 -0.413029 0.821759 2.03817 
-1.67331 1.42732 0.403442 -1.86355 0.793927 0.947019 -1.28561 0.529371 -1.75128 
1.31587 -0.641758 -1.69016 0.25485 -1.4848 -1.6524 1.34608 0.672476 -1.65404 
1.52829 0.258402 -1.61169 1.99862 0.300404 0.95669 1.54058 1.2441 -1.03867 
2.0019 0.922735 -0.375453 1.94018 1.10932 0.0714291 -0.0204685 2.07207 -0.840305 
0.892544 0.455307 1.99902 -1.86269 -0.762742 0.973974 -1.58084 0.799676 -1.36436 
-1.94305 -1.09389 -0.167177 -0.663943 -0.495988 -2.07682 1.94805 0.433679 -1.00848 
1.32685 1.09162 1.43103 1.37514 -0.99533 1.45544 0.929189 0.230096 2.02081 
0.434552 2.01225 0.872935 1.94196 -0.107582 -1.10328 0.579096 0.738153 -2.02972 
1.48169 1.65477 0.25754 1.57137 0.398699 1.54008 1.86914 -0.266416 -1.19806 
1.41312 1.45109 -0.947325 1.45609 0.596527 1.58869 0.868625 0.689893 1.94153 
0.508834 1.03431 1.91606 -0.285935 0.496449 2.16143 -0.0095307 -2.2357 0.0396169 
1.91032 -0.466542 1.06444 1.91198 0.809778 0.82981 0.565507 0.88655 1.97338 
0.546451 1.75149 1.27815 0.334958 1.94005 1.06019 -0.418512 2.0764 0.716531 
1.04637 1.62218 1.12856 2.14104 0.513424 -0.390288 -1.08516 0.50821 -1.8879 
-0.226049 -1.30631 1.80068 -0.0410679 -0.589169 2.15666 -0.413275 -0.559622 2.12509 
-0.781461 -0.798318 1.93701 0.840982 0.103718 2.0693 2.09045 0.70711 0.360557 
0.152334 2.13676 0.641143 -0.224852 2.05179 0.859996 1.15085 1.18653 -1.50589 
-0.0305271 1.34596 -1.78534 1.42701 1.48043 -0.878612 1.16438 -1.90304 -0.15058 
-0.435312 -0.396023 -2.15724 -1.8401 -0.38379 -1.21109 -1.50289 -1.29956 -1.0259 
-0.91297 0.337855 -2.01304 -2.07015 0.104213 -0.838826 -0.911917 -1.87144 -0.816153 
-0.905303 -2.04015 0.134916 -0.52056 -1.79105 1.23335 1.95905 0.442405 0.983052 
0.381662 1.19431 1.85147 1.15466 -0.988857 1.6398 0.0970576 1.76125 1.37426 
-1.43633 0.934908 1.43628 -0.207054 0.86359 2.05216 -1.15783 1.79724 0.65526 
-0.807274 -0.249281 2.07031 -1.8075 -0.977104 0.882171 -1.68225 -0.207422 1.45843 
-2.09959 0.0688602 -0.76614 -2.2143 -0.283805 -0.127875 -2.18606 0.466366 0.0604528 
-1.99122 -0.88991 -0.493053 -1.86219 -1.22488 -0.178629 -1.81844 -0.858809 0.977613 
-1.73015 -1.33866 0.463196 -1.61519 0.502246 1.4625 -1.31698 1.71674 0.564261 
-0.318433 2.0387 -0.861562 -0.26837 0.706437 -2.1045 0.964366 -0.0827416 -2.01573 
-1.16126 -0.993104 -1.63255 -2.13065 -0.463322 -0.495648 -1.38727 -1.70595 0.406483 
-1.62711 -0.908544 1.23574 0.149729 -0.717301 2.1126 1.99182 -0.0526804 1.01483 
2.19038 -0.449563 -0.0122212 1.85554 1.20644 -0.318543 0.704087 2.11609 -0.162517 
1.19725 1.25983 1.40692 1.71635 1.43217 -0.0551789 2.22277 0.193706 0.147488 
1.45597 1.23031 1.16897 0.461068 0.547527 2.1184 2.18738 -0.118488 0.448717 
1.63273 1.51264 0.214746 -0.0713596 1.63805 1.52042 0.839748 0.333701 2.04535 
-0.737977 1.58948 1.38886 -1.3948 1.55532 0.797192 -1.03696 1.97984 0.0702486 
-1.66018 1.49776 -0.0227005 -1.47902 1.66953 -0.158612 -1.8904 0.019012 -1.19416 
-1.22511 1.31256 -1.33278 -2.06734 -0.382355 0.761528 -0.355136 -2.20629 -0.0784967 
-1.2083 -1.87083 0.199984 -2.07537 0.396941 0.731622 -1.98747 0.796826 0.644237 
-1.42846 1.68872 -0.328251 -0.751675 2.10586 -0.0183939 0.788725 1.97161 -0.700463 
-0.842816 1.96854 -0.643832 -0.626251 2.12561 0.299335 1.15146 1.91571 -0.0647901 
0.853836 1.80002 1.01533 1.34562 1.62017 0.751236 -1.38201 1.75784 0.00661311 
-1.77703 1.33269 -0.257112 -1.334 0.761476 1.62499 -0.164208 1.80929 1.30364 
0.908624 1.96818 0.548322 -0.0113532 2.21408 0.312591 -0.742684 2.09139 -0.272949 
-1.34507 1.78232 0.118831 0.731107 1.86758 -0.988757 -1.35769 1.35104 -1.15385 
-0.822417 -1.93311 0.765979 0.477495 -1.42057 1.65951 0.926673 -1.53057 1.34113 
0.92363 -0.724135 1.9033 1.67073 -0.830389 1.23252 0.140688 1.5552 1.60049 
0.424084 2.04732 0.792864 0.790569 1.90489 -0.863945 2.06977 -0.370724 0.760672 
2.08922 -0.320572 0.729651 0.0151522 0.383881 -2.20282 -0.830054 0.833974 -1.90145 
-0.529772 1.58169 1.48916 -0.75753 2.07946 0.319386 -0.269624 0.624949 2.12996 
0.262787 -0.530953 2.15616 0.178167 -0.0498231 2.2284 1.09502 -1.41793 1.33806 
0.358735 -1.57822 1.5429 0.431642 -1.16292 1.86046 -2.02882 0.894413 -0.289653 
-0.0279989 -0.187693 -2.228 -0.574684 -0.252959 -2.1461 0.467405 -2.10542 -0.590526 
0.564409 -2.15657 -0.175008 0.0235295 -2.21454 0.30865 0.543921 -1.61642 1.44614 
0.0824374 0.47756 2.18292 0.137089 -2.15878 0.566469 -0.322994 -2.09696 0.706 
-1.28181 1.68094 -0.728968 -0.710472 2.06193 0.493622 -0.139865 1.67608 1.4735 
-0.0241228 1.71396 1.43589 0.804703 1.99271 -0.617695 2.01321 -0.90365 -0.361135 
1.38939 -0.328261 1.721 -0.0163195 1.796 1.33196 -1.10487 1.16878 -1.55345 
-1.35989 -1.63089 -0.700645 0.0668236 -1.6992 -1.45198 -1.23177 -0.096147 -1.86374 
-0.477583 0.268294 -2.16793 -0.548341 0.776771 -2.02385 -1.19394 1.02907 -1.58604 
0.28659 0.479814 -2.1651 1.03649 -0.130653 -1.97702 1.12609 -0.0538129 -1.93107 
1.5673 0.311719 -1.5641 0.953659 -0.631297 -1.92146 -0.995554 -1.15743 -1.63378 
0.894082 -0.506984 -1.98585 1.18071 -0.287232 -1.87708 1.3445 -0.803349 -1.59592 
1.9208 -0.112087 1.13929 2.1978 -0.242441 -0.333001 1.24676 0.952179 -1.5934 
0.37075 1.4309 -1.67782 0.30363 1.67611 -1.44861 -1.16339 1.42514 -1.27102 
-1.2685 -1.30414 1.30005 -1.22676 -1.68999 0.799356 1.54449 -0.801382 1.4044 
0.406007 2.16057 -0.408785 -0.467859 2.02406 -0.827206 -0.636365 2.14142 0.096733 
-2.13059 0.583514 -0.346557 -1.11234 -1.04378 1.635 0.959829 -0.72197 1.88613 
1.71421 -1.42042 0.20952 -0.255916 -1.36758 1.75049 -0.164193 -2.05541 0.865067 
-1.11185 -1.07537 -1.61473 0.215513 -0.529803 -2.16168 1.21414 0.219212 -1.86489 
0.742887 -1.96231 0.772966 0.890971 0.323361 2.02524 1.14924 0.711345 1.78136 
-1.06053 1.31486 1.46507 1.68729 0.147652 1.45988 -2.08767 0.524031 -0.605823 
-2.08306 0.806973 0.0982807 -1.54213 1.60663 -0.201396 -1.15335 1.87285 0.402772 
-0.991435 1.7067 1.05082 -0.855262 0.977464 1.82019 2.22209 -0.227393 -0.10303 
1.46969 1.59808 0.534917 0.686597 2.1115 -0.26486 0.185917 1.778 -1.34318 
1.48592 0.0455674 1.67032 0.562308 1.54283 1.51773 2.01667 -0.646152 0.718001 
1.75691 0.882862 1.06481 1.98875 -0.352786 0.959386 1.32156 0.277523 -1.78226 
0.100806 1.2799 -1.83077 -0.0546013 0.572855 -2.16075 0.820761 1.2735 -1.64455 
2.20586 -0.114535 -0.347955 -1.38478 -1.28687 -1.19431 -0.921558 -0.616275 -1.94189 
-0.19631 1.82287 -1.28008 0.41076 1.69431 -1.40021 1.25505 1.83907 -0.206545 
0.564648 2.09308 0.547901 1.11954 1.89795 -0.380018 1.56796 1.51383 -0.499831 
0.392304 1.54005 1.573 1.10774 1.42053 1.32477 -1.95106 0.989958 -0.461881 
-1.41435 1.68971 -0.380136 -1.38631 1.71932 -0.349405 -1.52813 1.34515 -0.924871 
-1.20175 1.88446 -0.0677674 -1.77219 1.36174 0.0706609 -0.154772 2.22891 -0.0895427 
0.0955645 2.12998 -0.673827 0.571592 2.1594 0.10137 0.245123 0.969912 1.9998 
1.13356 -1.1169 -1.57085 2.03844 -0.264418 -0.880254 1.98994 -1.00814 -0.154272 
1.97099 0.785408 0.705923 0.63819 -0.116112 2.13991 1.39722 -0.491725 1.67511 
0.532507 -2.17109 -0.0529804 -0.453355 -1.62293 1.46989 0.625816 -2.12435 0.308993 
-0.541657 -2.01296 0.809073 -1.44239 -1.55326 -0.711976 -0.135916 -1.88925 1.18838 
-1.86973 -0.153681 1.21676 -1.23895 1.54376 1.04011 -2.13423 -0.455602 0.487346 
-1.92984 -0.738972 -0.85418 -0.728259 0.440897 -2.06767 1.9067 0.757299 -0.889379 
0.31685 1.24745 -1.82852 1.06091 -0.0964231 -1.966 -1.91435 1.14715 -0.138953 
-1.86834 0.859997 -0.877336 -1.3388 1.78121 -0.18681 0.937566 1.75401 1.02196 
1.90758 0.817823 0.83204 1.70008 1.44589 0.138313 -1.05864 1.79183 0.817701 
-0.847698 -1.98166 0.595338 0.600755 -2.0391 -0.693663 0.716403 -1.88473 -0.966725 
0.287389 -1.74575 1.36739 -1.33344 -1.70143 0.57191 -2.21822 -0.041254 -0.278937 
-1.97314 -1.02539 -0.235112 -0.338414 -1.82123 -1.25243 -1.5575 0.0705447 -1.60288 
-0.487513 -0.0562896 -2.18155 1.76009 0.417918 -1.31432 0.320833 -0.260619 -2.19753 
1.44805 0.28428 -1.67998 -2.05031 0.735802 -0.504809 -1.90277 0.681121 -0.956845 
-2.01916 -0.469512 -0.838178 -0.662898 -2.13229 -0.117857 -2.0921 -0.702406 0.360171 
-0.0267063 -2.19092 -0.446283 0.420348 -2.13117 0.530508 1.19735 -1.64858 -0.921149 
0.876708 -1.44878 -1.46028 1.18266 -0.949044 -1.64336 -0.769131 -0.461504 -2.04828 
0.329558 1.23178 -1.83687 0.135334 1.57527 -1.58121 -1.8591 -0.0942099 -1.2389 
-1.39693 1.73095 -0.228968 1.28875 1.77308 -0.441946 2.03736 -0.894894 -0.219844 
2.13087 -0.233894 -0.636149 1.80524 -0.301978 -1.28449 1.26061 -1.65532 0.819003 
0.103117 -2.2288 0.147774 -1.75765 -1.37247 -0.164275 -2.0946 -0.748022 -0.230461 
-2.11489 -0.401342 -0.605099 -2.14677 0.0950183 -0.618357 -2.03208 0.459335 -0.812191 
-1.98718 0.00995402 -1.0252 -2.12817 -0.0708321 -0.682565 -1.759 0.464626 -1.30002 
-1.13087 1.87034 -0.472179 -0.363275 1.6345 1.48204 -0.897682 1.96255 0.585279 
-1.75527 1.37022 0.203804 -1.91489 -1.02506 -0.531458 -0.979097 -1.63972 -1.16305 
-1.7848 -1.14434 -0.710616 -1.32912 -0.332828 -1.76711 -0.532365 -1.67116 -1.38701 
1.41564 -0.972591 -1.4318 1.24381 -0.0319172 -1.85794 -0.434251 -1.72806 1.35101 
-2.21479 0.29042 0.101731 -1.84099 0.00137834 -1.26916 -2.04491 0.851269 -0.306052 
-2.08274 0.800091 -0.148474 -1.62793 1.24081 -0.900121 -1.56208 1.07923 -1.18117 
-1.43738 1.71134 0.0724441 -0.520854 2.16687 -0.182738 0.43089 1.99778 0.907319 
-1.58163 -1.58059 0.0133699 -2.11683 0.480084 -0.537154 -2.01572 0.967139 -0.0386926 
-1.2402 -0.234773 1.84575 0.282333 0.90379 2.0257 -0.5097 1.08233 1.88912 
-0.650903 1.7604 -1.21545 -0.371227 0.286816 -2.1863 0.209789 2.2002 -0.339264 
0.497193 1.45001 -1.62796 -1.84034 0.252116 -1.24482 -2.17971 0.206659 0.454052 
-1.84656 0.292896 -1.22655 -0.871676 1.33506 -1.56774 -0.797137 2.0855 0.123516 
-0.144212 2.19696 -0.390616 -0.46016 2.1882 -0.00625959 -2.06824 -0.844855 -0.0926513 
-0.955394 -0.273685 2.00308 -0.518317 -1.07384 1.89162 1.38712 1.28381 1.19488 
0.89669 0.965049 -1.80683 1.0202 0.788494 -1.82687 0.31335 2.00983 -0.928648 
0.283901 1.96934 -1.02033 -1.54212 1.31157 -0.949555 -1.3336 1.79458 0.0314003 
-1.18204 1.44463 -1.23119 -0.547376 0.714989 -2.04675 -1.08177 0.214073 -1.94524 
-1.07517 -1.49167 1.27238 -2.00785 -0.945768 0.272124 -2.10626 -0.538896 -0.522748 
0.227961 -0.942836 -2.01472 0.104356 0.0880114 -2.2319 0.090238 1.82715 -1.28583 
-0.325095 0.505341 2.15382 0.94042 1.49219 1.3744 0.65271 0.117965 2.13543 
-0.0737389 -1.09072 1.95062 1.82475 0.634062 -1.12616 0.954395 -1.97087 0.452552 
0.528147 -1.66401 1.39719 -2.11056 -0.691069 0.260657 -1.4673 -1.41979 0.911715 
0.224864 -0.159585 2.219 0.171612 -1.51693 1.63385 1.80909 -1.31329 -0.0494784 
2.064 -0.270578 0.816518 2.1999 -0.303042 0.261965 1.82287 -0.650917 1.11957 
2.07461 -0.67141 -0.495184 1.91087 1.13182 0.259917 1.66579 -1.41359 0.476357 
0.684333 -2.05869 -0.541724 -0.607162 -1.71666 -1.29786 -0.389482 -1.74329 -1.34508 
-1.31472 -1.05805 -1.46699 -0.254597 -0.168769 -2.21511 0.601929 0.861329 -1.97378 
-1.96429 -0.852152 0.644505 -1.15375 -0.480664 1.85413 -2.18664 -0.451296 0.122263 
-2.18471 -0.476366 0.0104901 -1.92015 -0.58745 0.983841 -0.550617 -1.99943 0.836117 
-1.14402 -1.92109 0.0255876 -0.623059 -2.10307 -0.434596 0.455148 -2.12273 0.535611 
1.96416 -0.830632 -0.672412 -0.879553 -1.8128 0.969615 0.236577 -2.12443 0.656375 
2.01225 0.0407578 0.974261 2.12765 -0.68763 -0.0165886 1.59002 1.16197 1.05909 
1.64341 1.30316 -0.775216 0.240021 2.15201 0.557885 -0.378422 2.1286 0.570837 
-2.22704 0.102207 -0.172792 -1.22072 1.87289 -0.0463099 0.0443401 -1.80999 1.31224 
-0.209421 -2.18322 -0.435535 -1.41282 -1.55287 -0.769768 -0.780968 -0.844046 -1.91773 
1.42425 -0.961708 -1.43061 1.29198 -1.28512 -1.29587 -1.40433 -0.928788 -1.47146 
-0.0341443 1.74546 -1.39721 0.335247 2.20804 0.11032 0.312496 2.17589 0.40967 
-0.556315 1.98389 -0.868722 0.769023 2.029 -0.540166 0.0855681 1.59698 -1.5628 
-0.0937109 0.151958 -2.22893 -1.52733 0.628989 -1.5072 -1.44293 1.7063 0.0804892 
-0.42825 2.07168 0.724404 0.52116 1.8188 1.19179 0.0506088 1.47621 1.67876 
0.239021 0.866161 2.04759 0.762899 0.844422 1.92482 -0.912855 1.12382 1.70403 
-0.722073 -1.0041 1.8629 -1.07175 -0.259027 1.94532 -0.00742892 0.942122 2.02789 
-1.06335 0.497167 1.90318 -1.91733 -0.264033 1.11988 0.187386 -1.71459 1.42305 
-0.622743 -1.92244 0.957287 -2.23271 -0.0601934 -0.106656 0.447442 2.19016 0.0546933 
0.825773 1.92298 0.787564 1.53574 1.58377 -0.364932 1.31652 1.67195 -0.68654 
2.15643 0.437417 0.398107 2.05066 0.824663 0.338716 1.15239 -1.89458 -0.287308 
0.243733 -1.63654 -1.5041 1.34978 -1.64723 0.681697 1.28732 -1.82306 -0.138803 
0.0852341 -0.349239 2.20698 -0.277308 -0.357752 2.18977 -0.624335 -1.99442 0.7953 
-1.71201 -0.972159 -1.06016 0.869547 -1.71959 -1.13442 1.80719 -1.21619 -0.504923 
0.403419 -1.13137 -1.88607 -0.426092 -1.56626 -1.53795 0.256064 -0.054229 -2.2207 
-0.326627 -0.235657 -2.1995 -0.351421 -1.21624 1.84316 -1.41969 -1.26274 1.17896 
-1.1245 -0.558251 1.85037 0.345612 -0.169589 2.20268 0.210267 0.129196 2.22241 
0.6019 1.20824 1.78266 2.17073 0.535216 -0.0382963 1.2704 1.82025 -0.269773 
-1.34528 1.53276 -0.916989 0.105582 1.93576 -1.11431 -2.02703 -0.845912 -0.419024 
-2.00886 -0.978587 0.0827434 -1.56371 -1.45955 0.651553 -1.93369 -0.677716 0.895293 
-0.628121 -1.27916 1.72314 -1.71127 -0.930395 1.09814 -1.26709 -0.666878 1.71748 
-1.7951 -1.03683 0.838222 -1.63848 0.811441 1.28722 -0.87264 2.05793 0.0585604 
-2.21564 0.12077 0.276316 -1.1194 0.130175 -1.93132 -2.17035 0.453367 -0.289916 
-1.70652 -0.134511 1.43864 -2.18723 0.168676 0.433074 -0.475333 -0.520151 2.12215 
0.367191 1.13775 1.88963 0.223503 1.70266 1.43213 1.29372 1.64604 0.7854 
1.94364 0.974308 0.522477 -0.29556 1.21437 1.85417 -0.812531 0.0804899 2.08166 
-1.55936 -0.733892 1.42471 -0.921545 0.0504927 2.03671 -1.25495 0.150896 1.84454 
-1.98614 0.316443 0.977295 -1.29895 0.396324 -1.77641 -1.73583 -0.896629 -1.08764 
-2.22051 0.0503788 -0.258412 -0.0660588 -2.16056 -0.572392 -0.722355 -0.387241 2.08044 
0.844534 2.03601 -0.376091 0.196652 2.14302 0.607296 -0.933873 1.94145 -0.59888 
-0.00997041 0.472429 2.18557 1.0986 0.987064 1.67893 0.48025 -1.63273 1.45036 
0.392853 -0.248806 2.18718 0.446047 -0.236644 2.17831 1.2803 -0.915212 1.58846 
1.2362 -0.707158 1.72387 1.09052 -1.85666 0.602978 0.918753 -2.03718 -0.0760756 
-0.289896 -1.7414 -1.3724 0.908787 -2.0407 -0.0982879 1.85876 -1.12669 -0.524956 
1.06706 -1.7616 -0.870716 1.95123 -0.683646 -0.851671 1.43979 -0.777267 -1.52409 
-1.27713 -0.926702 -1.58435 1.12301 1.92492 0.183071 1.89971 1.15779 0.224974 
1.68295 0.947217 1.12715 1.83818 -0.0606628 1.27178 0.589785 0.0546001 2.15619 
0.0292481 0.855223 2.06585 -1.19729 1.86745 0.281262 -1.2706 1.08145 1.48864 
-1.73123 0.645666 1.25935 -1.94407 0.10501 1.09979 1.61815 -1.53183 0.187379 
0.672811 -1.99558 -0.751665 -0.894901 -2.00407 0.427598 -1.37489 -1.08208 1.3924 
-1.38553 -1.09219 1.37384 -0.811193 0.119443 2.08031 0.622986 1.22795 1.76182 
-1.26475 1.83198 0.21039 -0.982207 2.00596 -0.10671 -1.98181 0.912548 -0.48957 
-0.775235 1.24691 -1.68649 -1.55399 1.21222 -1.05624 -1.55579 0.793137 -1.39659 
-2.09373 -0.494374 -0.609833 -1.95833 -0.528272 0.941216 0.309103 -2.09322 0.723096 
-2.06703 -0.527426 -0.670236 -2.13867 0.0444378 -0.651258 -0.601785 2.00216 -0.793225 
1.65213 1.3827 -0.598831 0.401896 0.602032 -2.11566 -0.872027 -0.879062 -1.86194 
-0.0810203 -1.36494 -1.76929 -0.459209 -2.11342 -0.567951 -0.473592 -2.12446 0.512218 
1.13673 -1.15131 1.54348 0.972506 0.638407 1.90963 -1.29234 1.80542 -0.265173 
-1.29657 1.41653 -1.14557 0.576365 1.93079 -0.969463 1.23812 1.64198 -0.878043 
1.24338 1.84858 0.191767 2.03214 0.0277971 0.932552 0.918543 -0.315889 2.01407 
1.98427 -0.486608 0.908786 1.14281 -0.0612483 1.921 1.32575 0.181218 1.79152 
2.00252 -0.955626 -0.276948 1.92884 -1.10945 -0.220661 2.18407 0.442748 -0.183913 
-0.708418 -2.11554 -0.150394 1.09239 -1.19381 -1.54321 0.660232 -0.578833 -2.05646 
-1.91579 -0.638492 -0.960252 -0.319342 -0.723689 -2.09148 1.56447 -0.93804 -1.29326 
0.877568 0.845966 -1.87462 1.37262 0.741336 -1.60198 1.56549 1.56615 -0.310516 
-0.451945 1.80497 1.24009 1.72082 1.05985 0.956809 1.7035 1.44842 -0.0132336 
-0.496402 1.71618 -1.34473 -1.14672 1.16132 -1.52852 -1.79929 -1.27477 -0.370839 
-1.68335 0.747706 -1.26778 -1.75101 -0.675817 -1.21542 -0.200366 1.01561 -1.98202 
0.063812 1.69326 -1.45903 1.90914 0.122536 -1.15766 -0.92836 1.20451 -1.6393 
-0.576964 1.5857 -1.4672 0.466358 1.33719 -1.73044 0.0751603 1.65199 -1.50508 
-0.299893 2.02395 -0.902052 -1.86318 0.670746 1.03859 -1.84528 0.91391 -0.871616 
-1.0264 1.98656 0.00848791 -0.817563 2.07412 0.172156 0.393656 2.18944 -0.22673 
0.673371 -2.02645 0.663368 0.375868 -2.12477 0.586591 -0.29503 -0.705648 2.10119 
-2.12909 -0.573999 -0.370831 -1.98962 -1.01976 -0.0387467 1.13787 -0.637281 -1.81635 
2.00968 0.405241 -0.892726 1.15767 1.41861 -1.28349 -0.413194 1.13704 -1.88053 
0.521075 2.17096 0.124158 1.98775 0.116069 -1.01753 0.371874 0.590768 -2.12431 
1.02931 -0.79604 -1.81847 1.64938 -0.558279 -1.40281 0.480303 -1.1759 -1.84026 
0.835049 -0.241173 -2.06023 -0.661136 -0.225407 -2.12417 0.389023 -1.10405 -1.90519 