# vtk DataFile Version 4.2
vtk output
ASCII
DATASET UNSTRUCTURED_GRID
POINTS 5120 float
20.5387 11.0001 40.0872 19.5523 10.8473 40.0683 19.1909 10.0091 40.1736 
18.7676 9.34421 40.7102 17.9291 8.96933 40.3518 16.9066 8.91627 40.8213 
16.4702 9.63606 41.3711 16.3838 10.1009 42.2372 16.1385 11.0319 42.2606 
15.8159 11.6796 41.7171 0.342938 35.5973 13.3911 1.1251 36.1513 13.3604 
1.72594 36.9723 13.0818 2.32155 37.8275 12.6993 2.83198 38.4557 13.116 
3.36029 38.842 13.7808 4.03983 38.7564 14.543 4.24931 38.724 15.5054 
3.96002 38.8438 16.5045 3.25307 39.094 17.1479 24.086 5.13658 35.6047 
24.7448 5.96443 35.6207 25.172 6.78646 35.4433 26.0281 7.23491 35.0895 
26.7194 8.02124 35.1866 25.9172 8.33478 35.6944 24.9472 8.05761 35.6103 
24.2966 7.30365 35.8806 23.971 6.48124 36.3231 23.3895 5.69727 36.4047 
29.0559 43.439 8.53604 29.1339 42.9809 7.66702 28.3606 42.856 7.10109 
27.4577 43.0692 6.99417 26.8051 43.5493 7.5179 26.7203 43.9737 8.4159 
27.6332 44.3013 8.83525 28.1341 43.5665 9.10279 28.8189 42.9318 9.43802 
29.3879 42.462 8.67599 20.4066 9.20906 42.6497 21.2608 9.64859 42.0687 
21.9316 9.7162 41.3407 22.4912 9.91118 40.4369 22.6801 8.929 40.1815 
21.8065 8.6321 40.5583 21.1184 8.00602 40.7896 20.5412 7.03268 40.5196 
20.0213 6.535 39.901 19.8563 7.05062 39.094 4.99457 36.5278 18.8214 
5.89673 35.837 18.4924 6.96619 35.5773 18.2508 7.86842 35.5067 17.7149 
8.13208 34.5419 16.9005 7.5637 34.1718 16.178 7.59544 33.6298 15.2506 
7.83229 33.1902 14.2401 7.74444 32.3486 13.6913 7.44391 31.6695 12.9601 
23.276 1.94104 28.9217 22.7876 2.68349 28.4403 22.1509 2.88073 27.7321 
21.339 3.43284 26.9354 20.8596 4.31654 26.6051 20.404 4.66353 25.8293 
20.3086 5.56097 25.3249 21 6.20592 25.0873 20.7863 7.15489 25.6721 
21.3485 8.0066 26.0869 39.0634 34.0914 46.7551 38.634 33.813 45.8416 
38.7125 32.8242 45.6088 38.8112 31.8469 45.5374 39.1687 30.9343 45.4515 
39.6063 30.0372 45.7507 40.4849 29.9841 46.1578 41.0268 29.297 0.023359 
41.7019 28.7325 0.735623 41.8109 28.0599 1.4669 22.409 3.0643 25.3777 
21.6406 3.59634 25.0847 21.4253 4.63794 25.4447 21.3371 5.52829 25.7592 
21.8056 6.17011 26.3189 21.8683 7.17795 26.1327 22.3397 8.19723 26.3501 
23.0542 7.39679 26.6832 23.6222 6.76816 26.9837 24.3948 6.06564 27.2288 
5.54865 32.7205 10.9961 4.95084 32.2636 11.7718 4.00839 31.6712 11.7455 
3.37634 31.6044 10.826 3.0612 32.5179 10.8506 2.70755 33.3069 11.2521 
2.67756 34.2177 11.7512 3.15289 35.089 11.6424 3.86431 35.7904 11.8594 
4.50822 35.8738 12.6096 1.68057 0.765648 31.3161 2.23883 1.66125 31.4476 
2.8568 2.16119 30.9465 3.08879 2.93432 31.5662 2.94777 3.83075 31.8801 
3.02141 4.92725 32.0805 2.76869 5.70944 32.5718 2.48657 6.37021 33.235 
1.70249 6.47861 33.7528 1.09689 6.48951 34.5448 24.1975 3.91417 30.4477 
24.3977 4.22701 29.4893 25.1644 3.77266 28.8925 25.7718 3.88221 27.909 
26.5766 3.53139 27.3555 27.5528 3.27556 27.4134 28.6045 3.5359 27.7671 
29.0574 4.41013 27.3644 29.65 5.18464 27.0895 30.2035 5.94377 26.6596 
3.45198 38.0209 15.3864 2.70465 37.3456 15.6304 2.13135 37.2895 16.3635 
1.24606 37.0762 16.8342 0.348863 36.8769 16.4934 0.652823 36.9046 15.5494 
1.71851 36.8058 15.3908 2.46741 36.2863 15.7956 3.02249 36.7078 16.5863 
3.39387 36.6207 17.5634 46.7459 2.10539 36.4658 0.524846 2.0756 35.551 
0.69892 2.86028 35.0857 1.18477 3.63357 34.6106 1.69412 4.14701 35.2247 
2.66482 4.32003 35.6423 2.9479 4.92143 36.4302 3.44886 5.41991 37.091 
3.5613 6.45243 37.5847 2.87153 6.81831 38.1864 0.0693426 34.8739 17.1504 
0.416471 34.1368 17.7458 1.25751 33.7884 18.164 1.44577 33.7918 19.1914 
1.73101 34.0978 20.0527 1.82262 34.9511 20.6229 2.04674 35.9337 21.2494 
1.95855 36.9544 21.3852 2.22284 37.6315 20.7397 2.98534 38.1397 20.5839 
40.4297 31.151 45.3372 41.0529 30.9052 45.992 41.5911 30.2653 46.5651 
41.9985 29.5601 0.206512 42.3164 30.09 1.06631 42.7885 30.5481 1.77404 
42.9095 30.8999 2.76115 42.4749 31.7515 3.19036 42.2085 32.6589 2.94289 
42.4372 33.5213 2.68143 28.3437 9.77433 27.6881 28.0084 8.86174 28.0724 
27.7555 7.9054 27.8842 28.076 7.39776 27.161 27.5342 7.02897 26.2394 
26.8236 6.68309 25.7035 26.0867 6.50784 25.0901 25.5436 5.87466 24.5922 
24.993 5.04556 24.5978 24.4797 4.19849 24.7871 4.09942 36.0513 13.5227 
4.48067 36.8386 13.9722 5.23003 37.3402 13.9601 5.78734 37.923 14.628 
6.101 38.7011 15.32 5.90295 38.9 16.2597 4.91675 39.2983 16.3901 
4.37927 39.5545 17.1918 4.01851 39.9401 17.9665 3.05789 39.8709 17.9706 
28.7672 5.0663 23.6252 27.9376 5.57332 23.6125 27.1524 5.95357 23.0956 
26.4431 5.84267 22.4382 25.4307 5.56837 22.1157 24.6082 5.00994 21.9495 
23.9915 4.15857 21.9353 23.0739 4.30436 22.1843 22.0765 4.18189 22.5774 
21.0755 4.01334 22.773 28.2828 44.9252 8.21972 28.2575 43.9566 7.85264 
27.998 43.007 8.03423 27.091 42.8885 8.31667 26.903 43.3832 9.25042 
27.4997 43.0183 9.95064 28.1908 42.2105 9.96964 29.0347 41.5848 9.78874 
29.498 41.2236 8.98121 29.8649 41.7125 8.14478 19.3541 8.55801 24.0709 
19.7594 9.46329 23.9514 20.5219 9.97725 23.6285 21.3804 10.3876 23.4046 
22.276 10.6698 23.2177 22.5803 11.1902 24.0037 22.5204 11.4794 25.0242 
22.7706 11.5576 25.949 23.4801 12.0505 26.5186 24.1671 12.6279 27.0084 
6.67603 36.6966 17.9629 6.36728 37.1717 18.7596 5.41994 37.4904 19.1074 
4.63896 37.9376 19.4859 3.87973 38.5001 19.6449 2.87558 38.7406 19.6915 
1.99962 38.5594 19.8876 1.42101 37.7681 19.8346 1.18533 36.8669 19.4612 
0.53137 36.1615 19.6129 19.2537 2.88411 24.9245 18.6868 3.57689 25.1677 
18.4725 4.56772 25.176 18.2147 5.50753 25.0509 18.178 6.44673 25.2183 
18.2503 7.34977 25.0521 18.4853 8.32758 25.0318 18.6349 9.28766 24.9265 
18.8077 10.2833 24.7983 19.1923 11.2107 24.9962 18.8443 9.78561 38.484 
17.8908 9.80713 38.6461 17.1782 10.1074 39.2013 16.5862 10.6521 39.7307 
16.571 11.2506 40.4273 16.9927 12.1425 41.3051 16.2945 12.7254 41.6204 
15.7576 13.4787 41.3901 15.135 14.2329 41.4245 14.7787 15.0893 41.0743 
17.6133 3.29698 27.8381 17.0175 3.94926 28.2676 16.4909 4.24872 28.9406 
16.7991 4.62338 29.9487 17.1908 4.16067 30.6536 18.1252 3.99004 30.8678 
19.1175 4.30581 31.2996 19.9616 4.49696 31.7633 20.9439 4.75369 31.6208 
21.884 4.59245 31.9051 27.3991 10.233 23.505 27.2787 11.2645 23.6584 
27.0142 12.1584 24.1464 27.5345 12.667 24.7158 27.2883 13.1242 25.615 
27.191 12.9677 26.5903 27.2696 12.5907 27.4457 27.1615 12.1031 28.2983 
26.9156 11.6445 29.1974 26.4316 11.256 30.1837 14.2907 15.648 40.2439 
14.1529 15.705 39.2834 13.6942 15.2239 38.5464 13.1791 14.9413 37.7412 
12.9865 14.2491 37.0916 13.4869 13.3331 36.5169 14.2437 12.5482 36.6263 
14.6505 11.8832 37.0621 15.2263 11.9845 37.8845 15.3707 12.6017 38.6873 
11.3273 10.4565 38.755 11.1461 11.1156 39.4415 11.1531 11.6668 40.2847 
11.3809 12.142 41.0923 11.6244 12.8136 41.827 12.6979 12.7293 41.5641 
13.2404 12.1769 40.9758 13.8455 12.2283 40.2035 13.8469 13.207 39.5453 
13.0273 13.2662 39.0467 0.7112 43.3866 37.354 46.7445 43.8212 37.7869 
46.0068 43.8425 38.4042 45.2734 44.4576 38.3894 44.4298 44.8976 37.8964 
44.0418 45.7046 37.41 43.6946 46.5439 36.8481 44.0291 0.618654 36.2564 
44.285 1.14945 35.4152 44.4639 0.771087 34.5706 21.873 5.29121 27.8524 
22.6646 5.22289 27.2825 23.4151 4.65801 26.4768 24.2267 4.24566 25.9231 
25.1587 3.93009 25.6861 26.101 3.60759 25.571 27.0523 3.38874 25.3428 
27.8783 3.12153 24.9517 28.7641 3.4809 24.7564 29.1721 4.27667 24.3126 
26.7589 28.4524 4.21756 26.3246 28.0468 4.95284 26.7055 28.0652 5.82625 
27.3236 28.7668 6.25321 26.537 29.3398 6.37553 25.6164 29.4886 6.2574 
24.7734 28.9444 6.22654 24.7111 28.0229 6.41411 25.3395 27.2964 6.50457 
26.3532 27.1355 6.27404 11.9866 12.364 39.9831 12.0889 11.5014 40.4855 
12.2485 10.468 40.7465 11.8714 9.44512 40.7108 11.9319 8.75854 40.0137 
12.3288 7.86129 39.2673 12.9385 7.2483 39.7957 13.0723 6.56548 40.3897 
13.3836 6.89032 41.3455 13.3108 7.72737 41.8466 1.51684 28.1233 13.8561 
0.774355 28.7069 13.7123 0.128056 29.5126 13.564 46.5522 30.3977 13.3764 
46.4297 31.2617 13.9002 46.5658 32.0188 14.7354 0.165497 32.4198 15.5626 
0.571106 33.4504 15.8477 1.34301 34.0622 15.9747 2.21749 34.1288 15.3885 
23.2965 4.7077 33.7354 23.8848 4.08866 34.2512 24.5799 3.92965 34.8806 
25.4664 3.40844 34.5661 26.3739 3.89427 34.234 27.0788 4.50006 33.9043 
27.9634 4.86245 33.4227 28.603 5.34204 32.7874 29.3284 5.18045 32.0435 
29.9774 4.67274 31.4695 17.3011 9.13611 29.6353 16.8397 8.25799 29.4969 
16.6098 7.60035 28.6419 16.637 7.67163 27.6392 16.8403 8.60143 27.3127 
16.9485 9.43631 26.8987 17.4186 10.2635 27.0804 17.7166 11.3165 27.3726 
18.3763 11.9092 26.9434 19.3387 12.3242 26.5489 23.7244 46.7027 28.2707 
22.8551 0.00189376 27.6793 22.224 0.416812 27.0176 21.3196 0.854033 27.0737 
20.7509 1.61182 27.1102 19.9328 2.12786 26.9047 19.3278 2.99253 26.9029 
18.7905 3.99508 27.1687 18.5831 4.97809 27.3398 19.2304 5.71466 26.838 
17.125 16.3322 37.8522 17.1707 16.8297 36.9528 17.6728 16.2646 36.3519 
18.5871 16.0498 35.8834 19.622 16.0775 36.0032 20.5001 15.6986 36.1092 
20.8292 15.0006 36.6683 21.2072 14.0907 37.1538 21.4859 13.4382 37.8195 
21.4966 12.3737 37.9227 27.2259 5.34849 29.979 26.5602 4.66021 29.6125 
25.9202 3.92739 29.7634 25.0744 4.53427 30.089 24.2733 5.117 30.1916 
23.4789 4.72849 29.8999 22.7912 4.78534 29.0481 22.5253 4.52847 28.1205 
23.3006 4.22018 27.5847 23.8309 3.69508 26.7329 46.4073 28.7443 17.1509 
45.5768 29.3129 17.575 45.2872 30.2298 17.9387 45.5821 31.1075 18.488 
45.7324 32.0657 19.1007 46.1165 32.8813 19.4653 45.3755 33.4397 19.3905 
44.6981 32.698 19.5908 45.4203 31.9793 20.0415 46.1418 32.12 20.7391 
20.7229 7.34974 41.5557 19.8007 6.90067 41.4208 19.196 6.99378 40.5528 
19.0064 6.75973 39.6419 18.9217 6.68037 38.6849 18.3128 6.27558 37.7798 
18.2562 6.11822 36.819 18.1955 6.20364 35.8004 17.9495 6.56111 34.7877 
18.2851 7.40048 34.2125 25.4297 28.3701 3.08679 24.4522 28.6593 2.96359 
23.5824 28.1864 3.23173 22.8402 27.5969 3.1945 22.2321 26.7404 3.45395 
21.9868 25.8399 3.72058 22.0486 24.8976 3.88594 22.3236 23.9615 3.85083 
22.4628 23.2021 3.18632 22.6329 22.9356 2.28526 22.9846 3.64106 28.9032 
[...]
POINT_DATA 5120
VECTORS mag_moments float
-1.52189 1.57995 0.433144 -2.06132 -0.850685 -0.165212 -0.450327 -2.16691 0.318922 
-1.8671 -0.415463 1.15816 -1.21577 -1.87594 0.0522902 -1.1896 1.35106 1.32646 
-0.891548 1.18711 1.6721 1.12084 1.77141 0.778341 -0.8162 1.64141 -1.28047 
-0.720274 1.54084 -1.45156 1.73636 0.718389 -1.21201 1.66382 1.29355 0.747276 
0.995318 1.68716 -1.07834 1.25789 1.69465 0.738829 1.02362 1.28368 1.51801 
0.889539 0.518514 1.98491 1.32705 -0.227763 1.78523 -0.775699 -0.684234 1.98245 
-1.41928 0.907422 1.47045 -1.56654 0.747572 1.40964 2.18063 0.482611 -0.10926 
0.375636 2.19932 0.14796 1.93269 1.09549 -0.254172 1.34598 1.78524 0.0351831 
1.23102 1.13216 1.48419 -2.20484 -0.275341 -0.250702 -1.59658 -1.35798 0.778998 
-1.06667 -1.55654 1.19975 -1.00148 -1.92522 0.539053 0.433049 -1.92465 -1.0527 
1.1315 -1.60854 -1.0641 -1.33909 -0.315765 -1.7627 -1.82989 0.784527 -1.01785 
-1.87718 0.499385 1.10762 -1.46425 1.35676 1.00756 1.00211 0.896513 1.78663 
2.10638 -0.733799 0.157222 1.18502 -1.51829 1.13602 1.51806 -1.32434 -0.970372 
0.910162 -1.74329 -1.06421 2.11801 0.657386 -0.286146 0.53347 0.00376639 -2.1715 
1.12043 -0.193471 -1.92541 1.63989 -0.260004 -1.49772 -0.695142 -1.27036 1.70381 
-2.01715 -0.218247 0.939943 -1.87452 -1.15393 -0.393205 -0.889853 -2.04574 -0.151959 
-0.709276 -0.181088 -2.11285 -0.904886 1.76163 -1.0382 1.88593 -0.587041 -1.04817 
2.08752 -0.48779 -0.635874 2.10284 -0.37805 -0.659664 1.54053 -0.836085 -1.38843 
-1.65538 -1.29283 -0.767016 -1.32864 -1.25566 -1.28765 1.00248 -0.526869 -1.92807 
-0.497532 -1.80828 -1.21761 -0.0630046 -1.52327 -1.63575 -1.33303 -1.57061 -0.869601 
-1.35149 1.5229 -0.924255 -0.506507 1.78141 -1.25301 -2.02242 -0.0182919 -0.953678 
-1.4377 1.71251 0.0178052 -0.257851 1.89416 -1.16004 -0.789315 0.0763698 -2.09073 
1.01359 1.80329 0.848994 -0.443591 2.18745 0.135235 0.651092 1.94517 0.890156 
1.12512 1.78403 0.742536 -1.5409 0.913981 -1.33801 -0.724362 -1.83094 -1.0597 
0.661103 -2.03378 -0.653222 0.467861 -2.14063 -0.44586 0.256006 -2.21509 0.166912 
1.70553 -1.25776 0.713586 0.998789 -1.14513 1.64046 1.74708 -0.889762 1.07519 
0.32993 -1.33579 1.76262 1.38309 -0.647283 1.63343 -1.75941 0.753866 -1.15592 
-1.57815 1.41054 0.720982 0.0488235 1.74056 1.40288 -0.0392603 2.17658 0.510824 
0.723189 2.03539 0.578091 0.305102 2.19684 0.284241 2.16789 0.331481 0.436324 
1.35392 -1.77833 0.0667023 1.022 -1.98788 0.0619714 1.73475 -1.40711 -0.103351 
-1.41822 -0.568 1.6328 -2.21201 -0.175501 0.276093 -1.21337 -1.82011 -0.463602 
-1.41927 1.58132 -0.696482 -0.786713 2.07534 0.272131 -0.71961 2.01742 0.642022 
0.733085 1.43783 1.54765 1.3078 1.7445 -0.496368 1.94833 1.07659 0.212022 
0.0179183 0.11123 2.23323 0.429677 1.79891 -1.2567 2.11432 0.642291 -0.342239 
0.94808 2.02454 0.0489482 0.220002 1.66062 1.48119 0.258303 2.21331 -0.185898 
-1.00561 1.95761 0.395602 -0.145843 1.80132 1.3168 -1.27805 0.725734 1.6852 
-1.84298 0.0778119 1.26387 -1.15535 -0.633124 1.80675 0.544113 -0.921288 -1.96346 
-0.546533 -0.456568 -2.11963 1.7056 -0.0257807 -1.44577 1.34402 -0.838775 -1.57799 
2.14639 -0.548474 0.303588 1.95022 0.167632 1.08099 1.77824 1.24055 -0.546733 
1.37485 1.22126 -1.27212 1.11737 1.50235 -1.22247 1.00223 1.70901 -1.03673 
-0.932725 -1.85015 0.840804 -0.989221 -1.72636 1.02036 -1.14802 0.151426 1.91288 
-1.55112 -1.6094 0.0622127 -1.46525 0.116794 -1.68506 2.14175 -0.134261 -0.628379 
2.20345 0.272142 0.265969 1.64796 -1.229 0.87966 0.414804 1.02252 1.94484 
1.12432 0.633188 1.8262 0.921706 -1.17365 -1.66524 0.701441 1.642 -1.34604 
1.06974 1.46026 -1.31274 0.813791 1.95549 0.716804 0.922806 0.523295 1.9684 
1.8316 1.05135 0.734789 0.26857 1.11838 1.91758 1.37381 0.0934617 1.76179 
-1.57786 1.56362 0.255835 -1.42109 0.691665 1.5818 1.37008 -1.62147 0.702659 
-1.15136 -1.31978 1.39016 1.02663 -0.261003 1.96924 1.17577 -0.242401 1.88648 
0.543395 1.51625 1.55103 0.42079 1.93153 1.04505 0.261478 2.14082 0.590368 
0.426494 1.81653 -1.2322 0.485803 1.91158 -1.05349 1.90151 0.808689 -0.854562 
1.85907 -0.293186 1.20744 1.03764 -1.40241 1.39877 0.577947 -2.01665 0.774006 
0.73664 -0.735314 1.97906 1.2907 1.1967 1.37913 0.513367 0.242168 2.16282 
0.0876034 0.903832 2.04338 -0.579516 1.97105 -0.882681 0.577914 1.79617 -1.19992 
0.0595635 1.9422 -1.10648 -0.119299 -2.13945 0.639142 -0.606806 -1.32188 1.69836 
0.749293 -1.78906 -1.11257 0.548024 -1.04434 -1.89974 -1.43151 -0.493589 -1.64534 
-1.83323 -0.259442 -1.25377 -0.981354 -1.33202 -1.50422 -0.97417 -1.84147 -0.812401 
-1.60474 -1.50047 0.416378 -0.585874 -2.15172 0.163892 1.17358 1.48651 1.18869 
1.8771 1.13314 0.438758 1.96978 0.822715 -0.665668 -0.375727 0.13119 2.20037 
1.24121 0.523281 1.78482 -0.705657 1.13471 1.7929 -1.78984 0.323215 1.30077 
-0.850422 1.17529 1.70161 -1.74851 0.322799 1.35592 -2.12757 0.0527325 0.686056 
-1.70558 1.24298 -0.738924 -1.50574 1.65291 -0.0253565 -1.68321 -0.468876 -1.39534 
-2.01735 -0.67098 -0.69289 -1.94825 -1.06067 -0.28162 -1.52474 -1.63554 -0.01339 
-2.08328 -0.63368 -0.508336 -1.83739 0.0910168 1.27111 -2.22637 -0.204232 -0.0397284 
-2.04818 -0.29083 0.848748 0.225906 -1.3754 -1.7485 -0.568348 -2.14958 -0.237265 
-2.04191 -0.902753 -0.125048 -1.79357 0.870736 1.01239 0.855728 0.632416 1.96667 
1.75361 -1.3691 -0.224515 1.51734 -1.40069 0.857747 1.1335 -1.25025 -1.46699 
1.57768 -0.39869 -1.53361 -0.151234 0.50406 -2.17326 0.282667 2.14014 -0.582999 
1.3413 1.78911 -0.00125718 1.98531 0.974807 -0.329097 2.00703 0.485873 -0.857761 
1.61066 1.46735 -0.50265 -0.757272 1.05657 1.8194 -1.14198 -0.284663 1.90128 
0.715251 -0.869133 1.9321 1.16711 1.54101 1.1239 0.888007 0.837979 1.87329 
0.44572 1.59272 1.50486 -0.763865 1.21326 1.71596 -1.93797 0.428505 1.02988 
-1.81373 1.13758 0.645207 -1.97694 1.04426 -0.0347641 -2.20175 -0.185121 -0.343563 
-1.75955 -1.36007 0.232762 -0.495091 -2.17594 0.141998 -0.692513 -2.12097 -0.147977 
-1.70333 -0.931607 1.1094 -1.72385 1.41403 -0.169828 -1.42482 1.28163 1.15208 
-0.605443 2.01256 -0.763565 -0.606792 2.15216 0.00333689 -0.318504 2.21311 -0.0266414 
0.368293 2.16182 -0.436897 1.09947 1.77671 0.79654 0.608263 1.96846 -0.869001 
0.413078 2.18464 -0.238114 1.81358 1.30678 0.0571797 -2.10679 -0.0154176 0.749119 
-1.77739 0.782323 1.10853 -1.74496 1.2906 0.538044 -0.488697 1.80006 1.23327 
-0.235094 0.760558 2.08957 -0.478172 1.90046 1.07685 -1.83583 1.05297 0.721786 
-0.787594 2.00749 -0.591337 -1.0158 1.91721 -0.540778 -0.127855 1.83473 -1.27178 
-1.10087 1.33446 1.4168 -0.582919 1.55708 1.49523 0.27964 -0.180772 2.21114 
0.0494659 0.373988 2.20402 1.62035 -0.546048 1.44094 2.16533 0.542126 0.13202 
1.37884 1.26863 1.2204 1.86093 1.18862 -0.352305 2.02313 -0.945242 -0.11601 
1.94879 -0.669377 0.868429 -0.792811 2.06632 0.319012 -0.706839 1.85582 1.02777 
0.814221 1.88444 0.886526 0.861707 1.3246 1.58205 -0.928094 0.836044 1.85464 
1.05576 -0.930777 1.73754 -0.87335 -1.22135 1.65697 0.315427 -1.45777 1.66596 
-1.03348 -0.43537 1.93452 0.688209 -0.938892 1.90915 -0.159229 0.475645 -2.17908 
-0.646827 -0.446816 -2.09332 -0.31262 -1.8885 -1.15578 -0.701209 0.0618898 -2.12237 
0.249525 -1.69585 -1.43591 1.80774 -1.29874 -0.213004 -0.294932 -1.91659 1.11342 
1.05997 -1.26022 1.51272 0.866476 1.45454 1.46066 0.851777 1.22341 1.66666 
0.443409 0.873204 2.0102 -0.4185 1.80561 1.25085 -0.19051 1.43972 1.70027 
0.60439 0.813644 1.99316 1.81235 0.906348 0.945464 0.933221 -0.709241 -1.90423 
1.39911 -0.550144 -1.65525 1.49062 1.2006 -1.15612 -1.12661 1.10517 -1.58409 
-2.19454 -0.394819 -0.167729 -0.356373 0.940343 1.99719 -1.86307 -0.309482 1.19717 
-2.00997 0.128774 0.971307 -1.5253 1.31908 -0.966172 -1.19776 1.45302 -1.20585 
-0.478255 1.70991 -1.35923 -0.475191 1.93193 -1.0207 0.444987 1.64275 -1.45029 
1.01847 -0.301706 -1.96766 1.21435 -0.361005 -1.84256 0.66518 0.520923 -2.07031 
2.05694 -0.0745366 -0.873752 1.09194 -1.87443 -0.542405 1.88879 -0.240714 -1.1724 
1.89304 -0.67846 -0.977801 2.21287 -0.270715 -0.172977 1.97056 -0.919984 -0.520131 
2.03991 -0.319702 -0.858239 1.97815 0.954347 -0.419687 -0.603311 1.36579 -1.66452 
-1.56595 -1.43183 0.705472 -0.565602 -0.909569 1.96285 1.30333 1.74824 0.494962 
-0.697231 1.75811 1.19286 -2.17887 0.311551 0.394292 -1.93462 0.346226 -1.06649 
-1.11091 -1.80396 0.715261 0.277972 -2.15146 0.542158 2.14162 -0.600158 0.230767 
1.48903 0.638463 -1.54115 -0.225882 -2.15473 0.553294 -0.11762 -2.003 0.986999 
-0.0593543 -2.21829 -0.275089 -0.355035 -2.00361 -0.927094 0.195558 -1.21413 -1.86753 
1.15464 -1.79475 0.667572 1.1714 -1.74588 0.761403 0.0805228 -1.31579 1.80616 
-0.102143 1.3475 1.78152 -0.247316 1.91808 1.12241 -2.11932 0.67994 -0.214886 
-1.70207 1.39127 -0.409044 -1.93051 0.559028 -0.98011 1.18148 1.33052 1.35419 
-0.551538 1.964 0.915708 0.458463 0.540246 2.12084 0.58964 1.59052 1.45691 
1.17619 1.32404 1.3651 2.19771 0.362749 -0.196214 1.49012 0.517798 -1.58475 
0.628028 -2.11029 0.390222 1.89542 -0.0173103 1.1862 1.8787 -1.05753 0.593374 
1.95988 0.395133 -1.00136 1.86171 1.15266 -0.453232 1.30886 1.64786 -0.755934 
1.56885 1.35472 -0.838713 1.05118 -0.319998 -1.94747 1.07989 -1.0491 -1.65325 
1.01551 -1.09922 -1.66146 -1.78127 -1.34726 0.109403 -0.51123 -1.78981 -1.23904 
-0.602029 -1.1481 -1.82193 0.717756 1.65604 -1.31998 0.137964 2.03558 -0.915074 
1.13114 1.90128 -0.325037 1.29676 1.71036 0.62698 0.234123 1.87025 -1.20305 
1.4858 1.32455 -1.01879 2.16612 0.263325 -0.488463 -2.15301 -0.426394 -0.427478 
-1.54412 0.0415811 -1.61677 -2.15692 0.538544 -0.240105 -1.91379 0.978428 0.616503 
-1.60898 1.51475 -0.341663 -1.66691 1.43952 -0.386249 -0.424028 2.0634 -0.750055 
-2.05725 0.798243 0.36128 1.7488 1.22434 -0.665358 -0.414875 2.18784 0.203011 
-1.13064 1.23842 -1.47919 1.34022 -0.994735 -1.48805 1.24166 -0.443465 -1.80599 
2.07719 0.571231 0.599132 2.15233 -0.595666 0.11257 1.76502 -0.945972 0.994901 
-0.949081 -1.97595 0.44144 1.00549 -1.11362 1.65796 0.128113 -1.86645 1.22472 
0.163731 -2.21962 -0.215596 -1.89875 -1.16709 -0.180677 -0.0587304 -2.17098 0.532344 
-2.16046 0.379837 0.433767 -2.20574 -0.344282 0.127268 -2.18683 -0.0965436 -0.456575 
-1.66587 -0.76002 -1.28346 -0.879931 -0.677162 -1.94092 1.46951 -0.824459 -1.46997 
1.50918 -0.896074 -1.38544 1.49778 -1.00425 -1.32217 -0.967333 2.01253 0.118352 
-1.13285 0.379682 1.8901 1.00874 1.79839 0.865 0.350284 1.36161 1.73877 
1.06762 1.51328 1.25306 -0.422969 2.17492 -0.301356 -2.21081 0.0883781 -0.323298 
-0.0819667 -1.91107 1.15805 1.72832 0.454597 1.34397 1.62788 -0.633176 1.3961 
-1.78056 -0.929943 0.98225 -2.11145 -0.328861 -0.658497 -0.783088 -0.791137 -1.9393 
-0.0833675 -0.0990231 -2.23232 -0.280031 -0.588504 -2.13898 -0.0347505 -0.870259 -2.05948 
1.02259 0.0410828 -1.98812 -0.442276 0.0630892 -2.19098 -0.832558 1.61448 -1.30396 
0.397325 2.16391 0.39952 -1.81839 1.21949 -0.454201 -2.18833 -0.455746 -0.0593427 
-1.66286 -1.44066 0.39926 -1.78434 -1.30337 0.342569 -1.01233 -1.84686 0.751208 
0.694225 -1.96215 0.817331 1.06626 -1.87024 -0.604392 0.055813 -2.17093 -0.532853 
-0.876363 -1.30162 -1.59304 1.7451 -0.720291 -1.19825 -1.82173 -1.14836 0.602142 
-1.89718 -0.344592 -1.13224 -1.13109 1.29887 -1.42604 -0.707784 1.79921 -1.12334 
0.0896933 2.12993 -0.674792 0.87505 2.02078 0.388273 2.23182 0.131657 0.0406384 
1.79724 -0.922943 -0.958186 1.29521 -0.859957 -1.60714 0.696587 -2.12303 -0.0865609 
-0.984518 1.78785 -0.91342 -0.888377 -1.46744 -1.43436 -2.11012 -0.681183 -0.288759 
-2.22486 -0.195042 -0.109388 -1.81306 -0.213921 -1.29114 -0.380259 0.931185 -1.99707 
-1.31562 1.60772 -0.827278 -1.7858 0.965091 0.937817 -1.5524 0.149473 1.60241 
-1.65193 1.41946 -0.506238 -2.12841 -0.250207 0.638174 -1.53368 -0.391713 1.57936 
-1.70819 -1.29876 0.628744 -2.2207 0.19979 -0.1691 -1.94449 0.671355 -0.876486 
-1.11489 0.813095 -1.75952 1.59595 -0.767858 -1.36505 2.13526 0.466973 -0.471791 
1.46355 0.408454 -1.64048 1.25694 1.70609 -0.713707 -1.27253 -1.26926 -1.33028 
-1.30544 -1.81304 0.0932782 -1.03206 -1.37753 -1.42732 -1.34297 -1.72784 0.459351 
-1.74816 1.31443 0.464991 -1.50208 1.33361 -0.982461 -1.61444 1.54351 -0.105742 
-1.54201 1.61845 0.05314 -0.194865 2.12717 0.661193 -0.80264 2.08423 0.108405 
-1.41427 -1.52331 0.82424 -1.78639 -0.753503 1.11402 -2.04118 -0.889063 0.207716 
-1.76586 1.22827 0.610815 -0.600547 2.12737 -0.337135 -1.77166 1.28578 0.45608 
-0.818955 1.9283 0.781639 -1.1904 1.50891 -1.14286 -0.0521789 1.1562 -1.91324 
-1.95814 0.944659 -0.522775 -0.200331 -0.550413 -2.15799 -1.70011 0.752742 -1.24218 
-2.10535 0.529113 -0.536241 -1.61598 1.05369 -1.13064 -1.21597 1.78411 0.581694 
-0.35491 2.16314 -0.441423 -0.95461 2.02194 -0.021464 -0.70555 2.09566 -0.332285 
0.200715 1.6897 1.45073 -2.19387 -0.332554 -0.276328 0.924005 -0.399561 -1.99664 
0.747631 1.15599 -1.76202 0.299633 2.19552 -0.299846 1.10217 1.89847 -0.425502 
1.01739 1.7734 -0.905515 -0.692147 1.07388 -1.83513 -1.12627 1.65526 -0.995799 
-1.30454 1.0023 -1.51445 -1.1231 1.8032 -0.697923 -1.63937 1.51731 0.101184 
-0.597565 -1.6723 1.3588 0.324368 -2.20432 0.189127 -0.863167 -1.62284 1.27332 
-1.69822 -0.00793083 1.45464 -1.78706 -0.680446 -1.15906 -0.696319 0.749631 -1.98826 
1.68113 -0.0663849 -1.47289 0.992577 1.37485 1.4576 1.35859 1.76962 0.150665 
1.77043 1.1366 -0.757433 -1.97161 -0.0539704 -1.05349 -1.82057 1.29414 -0.103644 
-2.0812 -0.550251 -0.604838 -1.16584 1.86283 0.413121 -1.36013 1.71343 -0.462796 
-1.22584 1.44544 -1.1866 -2.09704 -0.746944 -0.210976 -1.16766 -1.60931 1.02307 
1.37251 0.227704 1.75053 1.03308 1.13157 1.62859 1.27585 0.241602 1.82039 
0.408544 0.999322 1.95817 1.68984 -0.463973 1.38894 0.609773 -1.10635 -1.84504 
1.3636 -1.26155 -1.24463 0.497258 -2.05477 -0.72846 -0.742461 -0.998401 -1.85794 
0.274104 -1.40014 -1.72177 -0.243982 -0.209644 -2.21281 -0.591442 1.26014 -1.74993 
-1.5213 0.599522 1.52519 -1.96851 -0.984247 0.395252 -1.46145 -0.433822 1.63583 
-1.53885 -1.39621 0.826157 -1.69853 -1.30387 0.644131 -0.434034 -2.17417 0.290826 
0.890756 -2.03629 0.245119 -0.388158 -2.16359 -0.41013 -0.351476 -0.790788 2.06182 
-1.25725 0.698307 1.71222 1.04279 -1.79157 0.838364 0.674378 -1.7961 1.14858 
1.30758 -0.238545 1.79815 0.757935 1.63366 1.3254 1.51121 0.237273 1.63093 
1.95675 0.730688 0.798259 0.144063 1.96669 -1.05421 -0.484283 0.692836 -2.07013 
-0.755345 1.87713 0.951759 0.878627 1.10306 -1.7353 -0.891347 -1.98519 0.514333 
-0.250139 -2.06685 -0.815823 -0.890131 -1.56307 -1.32833 -0.533455 -2.09936 -0.555067 
-0.512068 -2.16151 -0.256256 -1.63538 -0.463422 -1.45285 0.579845 1.01146 -1.90807 
0.629385 0.619561 -2.05427 0.694192 1.15126 -1.78681 1.67316 0.638238 -1.33911 
-0.49212 1.9012 -1.06923 0.840461 2.03675 -0.381151 1.99211 0.668614 -0.764489 
-0.478142 2.16799 -0.266862 0.113493 2.22032 -0.239379 1.22636 1.23511 1.40376 
-1.20162 1.78485 0.60861 -1.8242 1.27236 0.23108 -1.6373 0.71229 1.34607 
-1.98261 -0.284121 0.994251 1.45881 1.25876 1.13464 0.900378 1.39604 1.49679 
0.71316 -0.340087 2.09183 -1.8686 -0.708 1.00353 -1.55201 0.940093 1.30671 
0.317267 -0.253108 2.19893 0.212831 -0.364383 2.19589 -0.82653 -1.47184 1.46647 
0.111958 -2.11841 0.706983 -0.892276 -2.00343 0.436015 0.632472 1.23196 1.75563 
-1.08617 1.19517 1.54654 1.29977 0.760806 -1.65281 2.22444 -0.137125 -0.181788 
1.54875 1.56887 0.37421 2.11113 -0.660424 0.327089 0.384863 -1.95294 -1.01878 
1.22693 -1.86912 -0.0318766 -0.667374 -1.92963 0.911678 0.649682 -1.43683 1.58538 
1.50055 0.282775 1.63352 1.42711 -0.257159 1.70213 -0.0137141 -0.0420609 2.23563 
1.61407 -0.453169 1.47967 1.25654 -1.83485 -0.233296 -0.420983 -1.89011 -1.11814 
0.406675 -2.13432 -0.528489 1.31834 -0.683089 -1.67194 0.298892 0.600369 -2.13312 
-1.68288 1.23592 -0.800271 1.69662 -1.36321 0.512982 0.816181 -2.08063 -0.069603 
-0.0116675 0.195486 2.22748 -0.227952 -1.4676 1.67159 0.715307 1.5169 1.47897 
1.33399 1.46689 1.03377 -0.11059 1.91131 1.15528 0.428422 2.0836 -0.689263 
-1.10523 1.926 -0.262669 -0.0672343 1.50213 -1.65502 -1.35948 -1.74574 0.322829 
-1.84193 -0.372904 1.2117 -0.325326 -1.53548 1.59263 -1.05586 -1.32439 1.45984 
-0.6692 -1.91903 0.932472 -1.75079 0.770032 1.15836 -2.01351 0.972514 0.00275296 
-2.18214 0.488115 -0.0024451 -1.1745 1.90259 -0.0267758 -1.05872 1.96686 -0.102811 
-2.05706 -0.425052 -0.766702 -1.55566 -1.51134 -0.543863 -2.22138 -0.0539122 -0.25017 
-2.13686 0.6433 0.14135 -1.94312 -1.0972 -0.142915 -2.14025 -0.121338 -0.636091 
-0.712707 1.49015 1.50715 -0.448676 0.20361 2.18111 2.09035 0.485629 0.628176 
0.949178 2.01947 0.144249 1.39531 0.443517 1.69009 0.633053 0.744387 2.01125 
0.987116 0.724233 1.87112 0.429396 0.508793 2.13465 -1.40057 0.540824 1.65708 
-1.85611 0.842193 0.919541 -1.88231 1.07946 -0.54006 -0.824386 0.333451 -2.05163 
-1.57719 -0.623436 -1.45733 -1.67909 -1.29843 0.703368 1.87083 0.918013 -0.810717 
1.34677 1.07609 -1.42416 2.05316 0.837151 0.289362 -0.214585 1.84057 1.2515 
1.41892 1.46925 0.909928 0.387249 -0.99796 1.96319 0.587503 -1.81295 1.16964 
-1.1088 0.0377593 1.94143 0.296285 -0.339172 2.19025 1.68448 1.47055 -0.00100675 
0.242138 -1.64417 1.49602 0.964393 -1.97541 -0.409509 0.712456 -1.43347 -1.56127 
0.0714916 -1.57164 -1.58897 1.48947 -1.66772 0.0143472 1.61168 -1.45521 0.53372 
0.492795 -1.59556 1.48706 0.914659 -2.04011 -0.0366172 0.547698 -2.04222 -0.727574 
-0.13156 -0.819321 -2.07639 1.56371 1.43398 0.706035 1.1129 1.64263 -1.03112 
1.24611 -0.121485 1.85268 1.80799 1.20344 0.531871 1.7865 1.34393 -0.0474503 
0.850588 1.1517 1.71758 1.4699 1.29878 1.07358 1.42043 0.571536 1.62964 
-1.86487 0.822398 0.919736 -1.69944 1.43843 -0.206879 0.108911 -2.23307 -0.0394527 
-0.729767 -2.11307 0.048655 -1.30468 -1.80419 -0.206658 0.25606 -1.74385 -1.37602 
-0.771525 -2.06949 -0.349241 -2.15528 -0.0232949 0.595165 1.41273 1.65637 0.510518 
0.203193 1.08148 1.94656 0.435469 1.70648 1.37778 1.02194 0.0275086 1.98869 
-0.98062 1.42786 -1.41407 -1.52734 1.44195 -0.766824 -1.56409 -0.140945 -1.59178 
-1.99752 -0.17002 -0.990449 -1.87956 -1.08391 -0.540717 -2.17567 -0.363268 0.366756 
-2.22954 0.033497 0.167402 -2.14075 0.638046 0.100485 -1.24008 0.214553 1.84829 
-0.597106 2.00219 0.796684 -0.425606 -0.0333189 -2.19494 -0.798991 -2.03785 -0.456943 
-0.209226 -0.424784 -2.18536 1.45952 -1.55843 -0.664156 1.92445 -1.01288 0.520158 
0.485169 0.936867 1.97152 -0.0792498 0.125771 2.23112 -2.08654 -0.204326 -0.777554 
-2.08492 -0.669036 0.453299 -1.63514 0.693738 -1.35833 1.02005 1.8812 -0.648505 
1.80456 1.05781 -0.79032 2.0358 0.881634 -0.279733 1.36448 -0.492988 1.70151 
1.159 -1.49892 1.18742 0.803456 -1.56415 1.38126 1.13266 0.0725954 1.92661 
2.09972 -0.667598 0.381447 2.0198 0.572667 0.769707 0.31878 -2.16894 -0.440554 
1.44463 -1.63736 0.481766 1.04022 -1.80636 -0.809323 0.294236 -1.09567 -1.92689 
-0.588578 -1.55085 -1.49948 -0.799394 -0.964854 -1.85203 -0.363342 -0.294302 -2.18663 
0.209945 0.931367 -2.022 1.37489 1.08897 -1.38702 1.43644 -0.810424 1.50992 
0.291816 2.16511 0.476616 -1.91149 1.06809 0.453204 1.7858 0.806321 1.07739 
1.5897 1.35959 -0.79016 -0.919249 -1.40028 -1.48128 -0.702843 -0.55598 -2.04863 
-1.18876 -0.634679 -1.78438 -1.39309 1.29779 -1.17263 0.1943 1.11057 -1.93103 
0.800018 -0.245891 -2.07353 1.80344 -0.115102 -1.31695 -1.98304 0.491609 -0.908785 
-0.292225 1.55293 -1.58209 -0.730523 1.85375 -1.01486 -0.917326 1.51929 -1.36024 
1.64869 1.22596 -0.882522 -1.97389 1.05044 -0.0186646 -1.43273 1.62382 0.557206 
-0.395137 1.59742 1.51397 -0.443519 2.19161 -0.0119552 -0.123199 2.15826 0.571594 
0.772306 -2.00559 0.617365 -1.89383 -1.06343 -0.531547 -1.18403 0.448909 -1.84297 
-2.09915 0.0200771 0.770183 -1.08385 -1.06818 1.63838 -0.279576 -2.20425 -0.251212 
2.14051 0.390459 -0.515522 2.17106 0.50874 0.166371 2.12572 0.602267 0.344355 
1.42703 0.690808 -1.57683 0.795771 1.52532 -1.42833 2.06238 -0.679844 -0.533293 
1.12609 -1.79936 -0.703012 0.256845 -1.27476 -1.81907 -1.31383 1.16091 -1.38785 
-1.70769 -0.425122 -1.37951 0.547246 -0.332083 -2.14249 0.101775 0.996259 -1.99928 
0.359473 1.12734 -1.89733 -0.516884 1.28504 -1.75542 -1.60376 1.17466 1.02378 