# vtk DataFile Version 4.2
vtk output
ASCII
DATASET UNSTRUCTURED_GRID
POINTS 5120 float
17.5554 12.9849 42.0389 16.5959 12.639 42.1249 15.7398 12.2456 41.9946 
14.991 11.7713 42.3223 14.2837 12.0864 42.835 13.3974 12.4491 43.128 
13.2106 13.1242 43.9386 13.2798 13.9672 44.5912 12.4226 14.7491 44.838 
12.2157 15.7766 44.7749 46.3563 35.6551 13.7358 46.4636 36.6996 13.7864 
0.704095 37.994 14.1168 1.89515 38.5743 14.8875 2.62272 38.7218 15.8106 
3.36853 38.6652 16.3916 3.41395 38.8147 17.3829 3.06799 39.5798 17.8094 
2.29352 39.9555 18.33 1.48366 40.3331 18.6705 25.9877 6.97156 34.1832 
26.527 6.41723 33.2463 27.4123 5.90484 32.9118 28.436 6.45311 32.7817 
29.0986 7.19843 32.6336 28.3137 7.61046 33.1333 27.3342 7.63014 33.8516 
26.7739 7.76898 34.5444 26.1087 7.37755 35.1573 25.3374 6.76622 35.0945 
24.1085 40.9183 11.2112 23.7497 40.5366 10.3848 23.7429 40.2751 9.47821 
24.4686 40.1343 8.81203 25.3597 40.2199 9.05107 25.8778 40.8339 9.66863 
25.9249 41.3113 10.51 25.6607 41.4192 11.427 25.1525 41.0528 12.2532 
24.1904 40.7146 12.4353 17.337 10.1178 43.8292 18.2452 9.96859 43.4299 
18.5638 10.2983 42.474 18.5488 11.1887 42.8805 17.5816 11.4243 42.9743 
16.6261 10.9804 42.7843 16.5532 10.2687 41.9429 17.3327 9.69777 41.5198 
18.1032 10.2878 41.077 18.7122 11.1054 40.7748 8.39949 37.9744 16.499 
8.9705 37.2222 16.1544 9.39191 36.6872 15.3231 9.17645 36.3618 14.397 
9.07566 35.928 13.4037 8.53667 35.4516 12.5916 7.67304 35.2086 12.2561 
6.77089 35.1121 11.9761 5.83463 35.2654 11.9948 5.17881 34.9482 12.5405 
23.8604 1.39145 27.1287 23.4108 1.90174 26.3597 22.793 2.66182 26.1131 
21.9511 3.09728 26.3627 21.9244 4.02268 26.0896 21.8536 4.98597 25.7898 
21.1298 5.68879 25.4397 21.0265 6.68591 25.2912 21.7909 7.27597 25.7396 
23.0923 7.6043 26.2127 36.6414 32.9779 44.8593 36.6444 32.4693 45.6848 
36.9196 32.4655 46.6434 36.942 32.4528 0.824585 37.2158 32.4374 1.84155 
37.6682 32.7609 2.66496 38.5178 32.727 3.15264 39.3671 32.0793 3.34338 
40.1292 31.8786 3.87969 40.9756 31.182 4.08929 22.8073 2.52036 24.2108 
22.0107 3.02095 24.352 21.7626 3.95499 24.6688 21.6838 4.90383 24.6979 
21.8848 5.75197 24.4637 22.3988 6.62938 24.5187 23.3329 6.95224 24.3776 
23.9358 6.3916 24.804 24.7276 5.9831 25.2738 25.6369 5.51027 25.6887 
4.39518 34.277 12.5212 3.45477 33.6571 12.0147 2.9772 34.0403 11.2185 
3.20842 35.0973 10.7254 3.98299 35.6024 11.183 3.69406 36.6148 11.6718 
3.53392 37.6589 11.9433 3.95403 38.3032 12.5969 4.27582 39.1005 13.0841 
4.72571 39.3199 13.9538 3.7559 3.68164 32.3591 4.73587 3.62694 32.504 
5.93938 2.99956 32.4212 6.05488 4.04313 32.541 6.13699 5.03091 32.5869 
5.10788 5.36572 32.6534 4.18681 5.65074 32.691 3.55425 6.58944 32.7348 
3.12086 7.41847 33.0718 2.43377 8.07687 33.5005 23.9931 3.64973 27.0584 
24.6374 3.5511 26.2842 25.0992 2.7192 25.8231 25.7606 2.50044 25.1791 
26.1296 2.67493 24.3261 27.2403 3.33159 24.1084 28.0344 3.73929 23.835 
28.7413 3.98443 23.1497 29.0731 4.68411 22.4911 29.4144 5.33373 21.7004 
3.06654 38.5341 18.3465 2.00518 38.5637 18.8039 1.15384 38.2338 18.147 
0.638592 37.7926 17.4679 0.942375 37.2809 16.5718 1.30202 37.1702 15.5926 
2.27652 37.2072 15.4698 2.82186 37.7393 16.1951 3.0393 37.374 17.0544 
3.6239 37.8834 17.6322 0.786786 3.80255 35.7908 1.75667 3.41487 35.2729 
2.70317 3.16347 35.0473 3.56274 3.80921 35.2902 3.67131 4.367 36.1024 
3.67918 5.19602 36.664 3.73798 6.0345 37.1005 3.10305 6.32117 37.7587 
2.3983 6.69528 38.2106 1.45229 7.15096 38.5994 0.53355 36.8235 17.8347 
0.961919 35.9417 18.1507 1.33869 35.8478 19.0494 1.5241 35.7459 20.0647 
1.27312 35.9814 21.0109 1.45782 36.5802 21.838 1.72181 37.5266 22.3143 
2.60961 37.951 22.1287 2.57046 37.9343 21.105 1.70054 37.6615 20.8328 
37.233 31.4937 46.3254 37.4689 31.5293 0.506219 38.0799 31.5665 1.2305 
38.4828 32.0013 2.033 39.1974 32.6066 2.32666 40.0175 33.2468 2.57528 
40.6437 33.7525 1.97879 40.9604 32.9947 1.40375 41.0195 33.1097 0.386887 
40.5986 33.3266 46.3055 28.9866 5.02421 26.3172 28.2806 5.2201 25.7008 
27.936 5.19219 24.7846 27.1658 5.53519 24.1933 26.9361 6.06063 23.4707 
26.7837 6.76241 22.7509 25.7944 6.96442 22.4298 24.8808 6.80166 21.9986 
23.9301 6.34386 22.0483 23.4203 5.57822 22.3429 5.79415 37.9453 14.8963 
6.00773 38.7091 15.4191 6.20125 38.8756 16.4178 5.51682 39.4362 16.9534 
5.29278 40.12 17.578 4.61338 40.7862 17.6651 3.70575 41.1473 17.3892 
2.9324 41.5959 16.8966 2.04747 41.743 16.207 1.22834 42.2844 16.0757 
27.0754 7.13652 19.9752 26.5416 7.92164 19.8728 26.0103 8.72282 20.0977 
25.5568 9.49475 20.5317 24.6997 9.15782 20.0703 23.9057 8.55068 20.2875 
23.0316 8.24178 20.7093 22.3466 7.62175 21.2582 22.0246 6.63391 21.3133 
21.533 5.79159 21.166 25.092 41.6324 9.99946 25.3924 42.2428 10.7363 
25.3635 42.6609 11.663 25.2891 42.1642 12.4819 24.3813 41.8353 12.6989 
23.4905 41.4169 12.4399 22.6214 41.7577 12.08 22.5126 41.4076 11.1726 
22.3763 40.4688 10.7459 22.8308 39.8464 10.0739 18.5517 9.96301 23.8532 
19.014 10.7565 24.378 19.6612 11.4739 24.6117 20.1888 12.2809 24.5535 
20.8807 12.4327 23.9296 21.6323 11.8516 24.5266 22.4339 12.1202 25.3192 
23.3785 11.9593 25.2911 23.7207 11.5854 26.3291 24.0881 11.7048 27.2565 
8.8321 36.6619 17.1298 8.26261 37.2961 17.599 7.68609 37.8862 18.1975 
7.01229 38.2814 18.7524 6.22928 38.9345 19.0504 5.29874 38.824 19.4264 
4.26843 39.0908 20.0085 3.36314 39.1928 20.6463 2.43082 38.8814 20.6203 
2.22533 38.4063 19.8351 18.983 3.53969 24.4179 18.5929 4.07986 25.158 
18.2863 5.02848 25.2163 18.2161 5.83321 25.7451 17.9626 6.70883 25.4489 
17.9853 7.62598 24.9472 18.6269 8.60622 24.8496 18.6775 9.65863 24.8858 
19.496 10.181 25.0966 20.1151 10.7892 25.4184 17.1184 12.2272 39.7267 
16.1459 11.8706 39.8874 15.1603 11.7063 40.1907 14.6529 12.3857 40.7141 
14.5831 12.8129 41.577 14.8882 13.7247 41.7457 14.2491 14.3281 42.3265 
13.4954 14.6293 42.8163 12.4632 14.9509 42.61 12.0538 15.1127 41.6411 
18.2158 5.37133 28.0858 17.9431 4.53518 28.4977 18.215 4.05523 29.2458 
18.8751 3.67933 29.8683 19.6841 3.41355 30.3668 20.6313 3.20382 30.0952 
21.5029 2.73944 29.7444 22.6778 3.00639 29.6188 23.2792 3.49244 30.283 
23.463 4.0235 31.0831 28.4595 10.5934 23.3849 28.7585 10.7283 24.3689 
27.703 10.5701 24.2143 26.8266 11.1856 24.3545 26.4613 11.9772 24.801 
26.6921 12.1723 25.8461 27.0769 11.845 26.8061 27.5156 11.2455 27.3674 
27.9686 10.63 28.0133 28.5419 10.1569 28.6611 11.0328 16.8336 41.0476 
11.1841 16.7094 40.0729 11.083 16.208 39.1817 10.7056 15.6983 38.2804 
10.2945 15.2223 37.4728 10.4721 14.2587 37.2054 11.237 13.6587 37.3664 
11.9407 12.9507 37.4831 12.5613 12.9376 38.323 12.3135 13.2103 39.2792 
8.97013 14.6043 38.8729 8.42985 13.8093 38.223 8.85398 12.899 38.171 
8.59314 12.5565 39.1392 8.21699 12.7522 40.081 7.94585 13.7621 40.3161 
8.01832 14.7195 40.3379 8.65285 15.3544 40.7118 9.51726 15.5908 40.4498 
9.48663 14.9937 39.5381 46.3803 1.43081 31.2089 46.1622 2.37308 31.2471 
46.1036 3.40691 31.4111 46.3914 4.30197 31.7085 46.1648 5.2577 32.0629 
45.4131 5.60473 32.469 44.6081 4.9351 32.3547 44.7568 3.97273 32.0062 
45.0818 3.91335 30.9949 45.8442 4.49007 30.8112 22.8094 7.25873 25.2838 
23.5881 6.82877 25.7443 23.893 5.86166 25.7906 24.0093 5.41395 24.7236 
23.9548 4.68682 24.0715 24.505 4.36309 23.2672 25.0126 4.05619 22.479 
25.0817 3.44086 21.7497 25.6378 3.9677 21.0844 26.0072 4.70913 20.6162 
28.7303 29.7173 45.517 28.8919 28.804 45.9751 29.1699 28.4774 0.0537999 
29.6837 28.6495 0.813002 29.4822 29.0949 1.64823 28.8515 29.6869 1.91743 
28.1913 30.2057 2.58165 28.0426 30.9487 3.17064 27.8422 30.8632 4.1234 
27.9497 29.9521 4.60014 10.7405 15.0323 42.7117 10.2206 14.4819 42.1522 
10.0441 13.4684 41.5959 10.1158 12.582 41.8788 10.6362 11.6629 42.1403 
11.2958 11.1043 42.5413 12.0485 10.913 43.1408 12.9424 10.7832 43.4589 
13.6255 10.5395 44.1239 14.5885 10.4718 44.4057 45.6125 30.8179 15.3574 
45.1909 31.7767 15.6283 44.5707 32.5087 15.3556 45.1753 33.4346 14.9302 
45.6505 34.4118 14.9469 46.619 34.4248 15.4194 0.741546 34.5243 15.2616 
1.7112 34.5998 14.9662 2.50027 35.4749 15.047 3.36886 35.9382 15.3724 
25.7531 6.22375 32.6274 26.2831 5.47275 33.0085 27.0366 4.95551 33.3004 
27.9637 4.73326 33.0241 28.7347 4.54491 32.4321 29.179 5.17918 31.7941 
29.4989 5.74192 30.985 30.018 6.0819 30.2293 29.81 5.95762 29.3197 
29.4512 5.91363 28.3601 19.5666 8.37879 29.1408 19.1353 9.14021 28.7109 
18.4131 8.99313 28.0287 18.6536 9.23531 26.9471 18.6219 10.1925 26.8356 
18.8018 11.0078 27.4303 19.5446 11.6021 27.4726 20.3908 12.0419 27.2357 
21.0516 12.6612 27.5255 21.736 12.9024 28.1132 22.373 0.383415 27.0453 
21.5181 0.825495 27.2625 20.9788 1.63637 26.9181 20.5197 2.5668 26.8645 
19.7818 3.10353 27.1354 19.5117 4.05445 26.978 20.3727 5.02853 27.1911 
20.4535 6.01737 27.4232 20.4169 6.77506 28.0819 19.8771 7.51297 28.5662 
13.5875 18.2978 42.221 14.4693 18.7763 41.9058 15.5084 18.8282 41.8366 
16.4551 18.8396 41.5479 17.1397 18.1803 41.2413 17.9045 17.5575 40.9797 
18.6804 16.6982 40.7621 19.2719 16.0692 41.0936 19.6348 15.1345 41.5034 
19.9281 14.2979 42.1032 27.4561 4.15336 25.9056 27.0258 3.44923 26.5092 
26.29 3.29421 27.1147 25.5791 3.51225 27.7707 24.7565 4.10237 27.8157 
23.8662 4.57936 27.4804 23.5947 4.96407 26.4986 23.5013 4.84094 25.435 
23.4642 3.9618 24.9349 23.6033 3.17354 24.4599 0.0208728 30.911 16.9222 
46.5578 31.8398 17.0268 0.276743 32.3559 17.6602 0.858755 33.0585 17.9861 
0.944457 33.8526 18.4366 0.421937 34.6444 19.0488 0.270242 35.0813 19.8282 
0.180591 34.68 20.6778 46.7341 33.883 21.069 46.4267 33.0958 20.45 
20.1006 11.8897 37.7544 20.0026 10.9951 38.1602 19.1477 10.5546 38.4164 
18.0129 9.97372 38.5246 17.065 9.55662 38.3455 16.0233 9.44113 38.0826 
15.3225 9.86112 37.5068 14.8463 10.6298 37.0386 15.0354 11.0316 36.113 
14.6335 11.5024 35.3095 28.4908 30.9519 0.810742 27.5387 31.047 0.844876 
26.55 30.9352 0.878855 26.0748 30.2667 1.43693 25.55 29.9655 2.15561 
25.2368 30.045 3.03734 24.5254 29.8211 3.63461 24.6456 28.9921 4.20674 
25.2705 28.2341 4.17623 25.7627 27.3694 3.9777 24.542 1.89621 27.5846 
[...]
POINT_DATA 5120
VECTORS mag_moments float
-1.73043 -1.3456 0.441559 -2.15393 -0.476753 0.365108 -1.60881 -1.54121 -0.190755 
-1.80005 0.0795373 1.3242 -1.59046 1.5577 0.209773 -1.57488 0.464096 1.51801 
0.623152 1.31749 1.69585 -1.46444 1.46586 0.840645 -0.523472 2.14807 -0.334326 
-0.638786 2.14262 -0.0333427 0.79575 2.08841 0.0730107 0.861541 2.03171 -0.360397 
1.77568 0.615113 1.21186 1.76234 1.29186 0.474585 1.57903 0.173677 1.57369 
1.12389 -0.236989 1.91852 -0.42363 1.6316 1.46916 -1.15513 1.45033 1.24988 
-1.73378 1.38707 0.264629 -1.42007 1.60167 -0.646573 0.581746 -0.202841 -2.14952 
1.96555 -0.991169 -0.392694 1.77137 -0.531507 -1.25688 1.56646 1.4928 -0.563712 
-0.73556 1.72501 1.2179 -1.65747 1.40484 0.528411 -1.55391 -0.430928 1.54908 
-1.2876 0.654225 1.70707 -1.57473 -1.37287 0.797171 -1.17668 -1.10446 -1.54777 
-1.29145 -0.309547 -1.79899 -0.891744 -1.25169 -1.62421 1.14026 0.141459 -1.91828 
1.8931 -1.08576 -0.487141 1.69367 1.00252 1.06134 0.0722015 1.75344 1.38572 
0.416715 0.442315 2.15191 -1.70042 0.481279 1.37001 -2.07779 -0.625789 0.539624 
-2.19341 -0.127362 -0.415611 2.09741 0.34183 -0.695704 1.66214 0.595862 -1.37195 
0.285423 1.57801 -1.55833 -1.36358 1.6022 0.757375 -2.23479 -0.0696717 -0.029348 
-1.39409 -0.396232 -1.7028 1.09486 -0.440729 -1.89922 2.12566 0.309848 -0.620937 
0.144318 2.17514 -0.49795 1.89566 0.602846 -1.0213 1.06364 -1.95858 -0.180651 
-0.121169 -1.98546 -1.02141 0.23145 -1.19134 -1.87807 -0.62552 -1.23207 -1.75804 
-0.844382 -0.315509 -2.04633 -1.92959 -0.487765 -1.0192 -2.15127 -0.5785 -0.193298 
-2.11301 0.717483 0.142907 -2.02648 -0.44995 0.831211 -1.86515 -0.137856 1.22565 
-1.43489 -0.400124 -1.66763 -0.228903 2.09556 -0.745821 -1.8468 1.25907 0.0638925 
-1.73446 1.41083 0.0346448 0.414737 2.11398 -0.599225 -1.35024 1.75736 -0.297575 
-0.849233 1.73829 -1.12123 1.22457 1.8376 -0.351648 1.94246 0.823425 0.740828 
2.22039 -0.261932 0.0356862 -0.0382303 -1.25235 1.85207 0.432452 -1.17541 1.8524 
-0.146169 -0.671099 2.12797 0.0435477 0.957501 2.02022 0.657872 -0.307132 2.11492 
1.96866 0.334142 1.00635 1.68417 -1.3388 0.609252 1.93586 -0.857678 0.718903 
1.78803 -1.07249 0.80791 1.85431 -0.390301 -1.18709 -2.09704 0.64235 0.435681 
-2.07409 0.638868 0.538523 0.487092 1.83042 1.18841 0.207979 2.14849 -0.583732 
0.278075 2.17485 -0.438957 1.59424 1.53576 -0.315974 1.86331 -1.22067 -0.19501 
1.44134 -1.70946 -0.0169164 1.89788 -1.07995 0.48142 1.49697 -0.824123 1.44219 
-2.21567 0.0629281 -0.294674 -1.20858 -0.195153 -1.87116 -0.314451 1.70698 -1.40973 
1.34011 1.09351 1.41716 0.821757 1.887 0.874037 -0.833142 2.03835 0.388613 
-0.118028 1.91453 1.1492 0.860768 1.74936 1.0949 0.317754 1.4417 1.67945 
1.48306 -0.140267 1.66759 2.07829 0.697106 0.441302 2.04231 -0.216889 -0.884267 
1.74879 1.29099 0.524465 -0.0575761 2.23497 -0.0401085 -0.240953 2.20819 0.256613 
-1.94013 0.478963 -1.00323 -1.96774 1.06201 0.0121174 -0.728999 1.74563 1.19219 
-0.8704 2.04405 0.253468 -0.476399 1.25987 1.78487 2.00964 0.483634 -0.852899 
0.204632 -0.0951525 -2.22465 1.44203 -0.623313 -1.59124 1.65225 -0.153876 -1.4988 
0.647972 0.315732 -2.11671 2.04244 0.797825 0.438068 0.980043 0.739479 -1.86887 
1.25582 1.51357 -1.06397 0.603919 1.37855 -1.65375 1.55667 1.53341 -0.4748 
-1.51211 0.256011 1.62726 -2.1851 -0.440658 -0.176522 -1.96194 -0.550188 -0.92092 
-0.216992 -1.62376 -1.52195 1.15975 -0.163526 -1.90479 2.02358 0.555353 -0.772473 
2.20887 0.250834 -0.240803 0.785481 0.374748 2.05975 1.97831 -0.346082 0.983122 
0.555086 2.16572 0.0389613 1.11108 -1.49869 1.23265 2.1719 -0.0424818 -0.530129 
2.23554 0.0282042 0.0394368 1.56441 0.662001 1.45409 -0.540925 1.02211 1.91382 
0.663862 1.93902 0.894147 -1.67155 1.26331 0.781009 -1.63746 0.608239 1.39599 
-2.066 0.456232 0.72352 -1.95552 1.05919 -0.232512 0.883668 -1.87121 0.847185 
1.10043 -1.58735 1.12667 0.450586 -0.549504 2.12015 0.135043 -0.0747347 2.23073 
-0.211129 1.32092 1.79181 0.603743 1.69413 1.32869 1.90192 1.17547 -0.0312093 
1.73959 0.999055 -0.987782 -1.69797 0.456923 -1.38135 -0.948379 -2.01085 -0.238866 
0.119062 -0.892171 2.04691 0.898134 0.817003 1.87773 1.26853 0.385985 1.80051 
2.07239 0.739345 0.398187 1.5436 1.44202 0.733404 1.73804 1.39244 -0.200831 
1.28947 -1.15809 -1.41283 0.339359 -0.111281 -2.20736 -1.1815 0.239948 -1.88321 
-1.49622 0.570428 -1.56075 -0.845269 -1.58177 -1.33548 -1.25418 0.72112 -1.705 
-1.33631 -0.180338 -1.78374 -0.965938 1.37608 -1.47424 -0.557222 1.70019 -1.34121 
-1.44534 0.547293 -1.616 -2.11434 -0.560833 0.463696 -2.19989 -0.187901 -0.353812 
-1.25959 -0.920426 1.60195 -1.1919 -1.84446 -0.421115 -0.261019 1.70555 1.42232 
0.170211 0.940754 2.02139 -0.213697 1.16262 1.89806 -1.13949 1.23292 1.47698 
-1.42556 1.72008 0.0954488 -1.52286 1.62732 0.180872 -2.00052 0.811626 -0.582398 
-2.12817 0.254756 -0.637161 -1.19405 1.04013 -1.57873 -1.84788 0.821438 0.954238 
-1.0352 1.85432 -0.699909 -1.1873 1.86113 0.355699 -0.882125 1.82549 0.943108 
-2.04314 0.858233 0.298368 -1.63699 -1.51869 0.117537 -1.99353 -0.689183 0.742193 
-1.58223 -1.15949 1.07337 -1.08089 -1.95324 -0.128548 -1.61951 -1.51107 0.306371 
-0.132986 -2.10274 0.748876 0.782786 1.86396 0.955453 0.326449 0.995507 1.97545 
-0.295021 -0.963162 1.99632 -2.01653 -0.566277 0.782903 -1.6901 -1.46157 0.0858728 
-2.11436 0.471891 -0.553897 -0.603952 0.496182 -2.09501 -0.270221 -1.85077 -1.2254 
-0.0088222 -1.39818 -1.745 1.52689 -1.26858 -1.02923 1.23989 1.45419 1.16103 
1.33461 1.42307 1.09255 1.28306 1.81859 0.215618 0.82867 1.52858 -1.40597 
1.89882 -1.16263 0.206807 1.67652 -1.04335 1.04914 2.03065 -0.0577487 0.934401 
1.9527 -0.758808 0.781766 -0.158779 -0.179696 2.22317 0.569397 -1.10789 1.85698 
-1.08655 0.922807 1.72274 -0.686495 1.74273 1.22132 -1.55252 -0.825246 1.38154 
-0.919381 1.94413 0.612454 -2.00646 0.0231218 0.986696 -1.81613 1.18831 0.538136 
-1.63461 0.285626 1.49882 -1.47441 -1.25915 1.11385 -1.57152 -1.01276 -1.22664 
0.167468 -0.943676 -2.02025 -0.726284 0.76988 1.96972 -1.51576 1.63652 -0.155771 
0.293172 1.82572 1.2573 -0.671938 2.13269 0.0121734 -1.1331 1.73965 -0.830494 
0.80931 2.044 -0.408776 -0.345581 2.15648 -0.479773 1.49316 1.38592 0.921791 
1.96441 1.01637 0.328768 1.22537 1.58984 0.985343 -1.51457 -0.93075 1.35638 
-1.85931 -1.1144 -0.548709 -1.67302 0.334508 1.44538 -0.255928 1.48349 1.65341 
0.461201 1.83395 1.19329 0.535179 2.06621 0.666614 -1.19978 0.323208 1.85905 
-1.79197 0.91651 0.974099 -1.60939 0.0344038 -1.552 -1.28886 0.928756 -1.57361 
-1.91133 -0.899093 0.733795 0.637995 -1.9053 0.98123 0.928992 -0.857323 1.84444 
1.74375 -1.14867 0.799918 2.20171 -0.349755 0.173632 1.75549 -0.676815 -1.20837 
1.5224 0.174684 -1.62843 2.07069 0.572047 0.620499 0.870809 0.826362 1.88648 
-0.126474 1.84851 1.25181 0.551344 0.930202 1.95723 -0.0473512 -1.40662 1.73758 
-2.0667 0.811356 0.265449 -1.51083 1.39287 0.881635 0.599284 1.08851 1.85903 
0.0823731 0.293715 2.21516 1.48959 -1.28723 1.06027 1.47032 -1.13997 1.24042 
0.848664 -1.89545 0.828879 1.23986 -0.423856 1.81193 0.0671287 0.347552 -2.20787 
0.0975868 -0.603266 -2.15094 -0.83816 -1.26778 -1.64019 -0.971755 -1.87067 -0.74585 
-0.902578 -0.982209 -1.79461 0.785272 -1.66051 -1.27517 1.19851 -1.80707 0.545951 
2.10554 -0.660635 0.360917 -0.0434098 0.488934 2.18153 -1.49343 -0.164827 1.65605 
-0.414899 -0.89541 -2.00651 0.717651 -1.5841 -1.40556 0.478213 -1.75546 1.29988 
-0.33199 0.264622 2.19539 -0.311008 0.960266 1.99529 -0.942415 1.8674 -0.79037 
1.5071 1.54481 0.58499 1.63682 1.22002 0.912337 1.66783 -0.103132 -1.48583 
-1.63747 -0.976905 -1.16806 0.0269331 2.1504 0.612433 -0.0795391 2.22463 -0.211453 
-0.842808 1.86792 0.894726 0.522569 2.09799 0.5704 -1.03834 1.63757 1.11365 
-2.12946 -0.657582 0.181631 -0.234361 -2.22366 -0.0197105 0.448388 -0.955228 -1.97142 
0.718237 0.302031 -2.09593 1.94468 0.611614 0.918775 2.09804 -0.637105 0.438563 
-0.263123 -2.16199 0.506528 1.01241 -1.23042 -1.56878 0.320227 -0.803846 -2.06186 
-0.770718 -1.08917 -1.79435 1.69997 0.791758 -1.21788 0.96822 -1.03653 -1.72863 
0.876469 0.175773 -2.04961 1.32999 1.2886 -1.25324 0.945899 1.9727 -0.462304 
0.292307 -2.05193 0.839125 0.753613 -1.70704 1.23211 0.568525 1.1335 1.84172 
1.24841 0.70138 1.71742 -1.39032 0.555893 1.66072 -1.42315 1.64194 -0.527917 
0.491067 2.11373 0.539462 -0.657504 0.45214 2.08884 -0.613066 -1.20076 1.78391 
1.16187 -1.90619 0.128441 -1.14357 -0.465557 -1.86427 -0.780374 -1.85956 -0.965948 
-0.619186 -1.92191 0.960661 0.110788 -2.20766 0.337606 1.70044 -1.41765 0.314271 
2.01665 -0.420101 0.86985 2.16164 -0.327435 0.469134 2.01572 -0.49095 0.834174 
1.36078 0.240009 1.75803 1.86472 -1.23141 -0.0802886 -1.46287 1.19963 1.19201 
-1.64548 1.51038 0.105667 -0.696005 1.93518 -0.87786 1.84229 1.03523 -0.730948 
0.778661 1.72287 1.1939 2.23346 0.085552 -0.0657702 2.04285 0.113303 -0.902178 
1.02417 1.26696 -1.53163 1.1002 1.31902 1.4317 2.20591 0.195603 -0.309355 
1.7777 -1.35551 0.0489737 1.11129 -1.76798 0.799563 1.84162 -1.0379 0.728821 
1.58316 -0.131398 -1.57364 1.76716 0.434431 -1.29939 1.36391 1.20403 -1.30003 
0.796219 1.2055 -1.7067 1.06509 0.421644 -1.92037 -1.19769 0.064514 -1.88716 
-1.24455 -1.1366 -1.46944 -1.50217 1.61156 0.38259 -1.16783 1.7163 -0.830967 
-0.0656963 -0.998364 -1.99974 0.405205 1.59547 -1.51337 0.147908 2.086 0.791669 
1.42147 1.70504 -0.268849 1.71418 1.2939 0.622419 1.36731 1.35949 -1.13236 
1.75307 0.754305 1.16523 1.59089 1.04373 1.1746 -1.27121 1.34931 1.25035 
-2.07159 0.78863 -0.294225 -0.702195 2.12265 -0.0357708 -1.85456 1.14605 -0.497155 
-0.83449 2.07451 -0.00514734 -0.858546 1.90585 -0.794118 0.618068 2.13925 -0.203984 
-0.529439 2.00492 0.83666 -0.672315 2.09876 0.378434 -1.14498 1.82044 0.612368 
1.93121 0.906986 -0.66917 1.86624 0.816158 -0.922525 2.16131 -0.0596913 0.570227 
1.66957 -1.30527 -0.713306 1.80323 -0.907696 -0.961489 1.80686 -0.847333 -1.0086 
1.53759 -1.5202 0.569935 0.737079 -1.84276 1.03002 1.06027 -1.72145 0.955225 
0.415689 -1.63988 1.46218 0.398599 -1.29641 1.77776 -1.54687 -1.60729 0.154353 
-1.80309 0.149831 1.31393 -1.57391 1.22827 1.00707 -1.27675 1.42832 -1.15318 
-2.02617 0.880882 -0.344526 -0.642435 0.0659897 -2.14078 -0.160767 -0.819855 -2.07412 
0.521412 -1.6152 -1.45576 1.34069 -1.30565 -1.22386 -0.437573 1.97733 0.947992 
0.845983 2.01889 -0.456504 1.61548 1.33237 0.784239 1.33128 1.76108 -0.355365 
-0.260561 1.89424 1.1593 -0.212909 1.44287 1.69494 -0.0279877 -0.202202 2.22673 
0.245875 -0.522554 2.1602 -1.03367 -1.97185 -0.208155 -0.010988 -0.85559 -2.06588 
0.10538 -1.94064 1.10582 -0.257812 -1.95125 1.06121 -2.13128 -0.674596 0.0508471 
-1.27929 -1.62361 -0.85283 -2.22121 0.198246 -0.164037 -2.18826 0.137997 -0.438741 
-0.924094 1.8943 -0.746778 0.897587 1.28358 -1.59586 -1.41022 1.03029 -1.39634 
-1.00918 1.13603 -1.64043 -1.92532 1.01353 -0.51564 -2.19463 0.425185 -0.0532425 
-1.85993 -0.740194 0.996383 -0.783168 -1.08614 1.7908 -1.27425 -0.87791 1.61417 
-1.31646 -0.21188 1.79501 -0.646268 -1.83097 1.10901 0.69974 -2.01959 0.656976 
0.946238 -1.77887 -0.969663 0.697672 -1.45798 -1.54516 -2.15377 -0.316569 -0.51095 
-1.45271 1.50383 -0.792539 -2.19648 -0.312474 0.278984 -0.680413 1.90503 -0.952835 
-1.7261 1.34835 0.450035 -0.344437 2.18082 -0.354105 0.351149 0.326732 -2.18402 
1.471 0.259034 -1.66405 0.907548 -1.63426 -1.22701 -1.03599 0.683463 -1.86 
-0.567776 -2.16231 -0.0453034 -0.838619 -2.05344 0.283045 -1.69487 -1.45563 0.0924173 
-2.00115 -0.324432 0.943477 -2.19988 -0.318243 0.243372 -2.16181 -0.20863 0.532006 
-2.22848 -0.176348 0.0527596 -2.04976 0.340463 0.826174 -0.933526 1.71486 1.08985 
-0.555939 1.59177 1.46874 -0.583909 -0.662874 -2.05418 -1.87199 -0.552784 -1.09091 
-1.50589 -0.0723616 -1.65138 -0.818228 0.639543 -1.98027 -0.400731 0.347854 -2.17219 
-1.03892 0.692418 -1.85505 0.55426 1.66153 -1.39 1.0296 1.53518 -1.25823 
0.326058 2.11458 -0.649785 2.20182 0.0302975 -0.388681 -1.53959 0.465223 1.55346 
-1.88402 -1.20428 0.012731 -1.73495 -0.517158 1.31245 -1.70279 0.648906 1.29593 
-0.982895 1.6035 1.20942 -2.00724 0.890232 0.422441 -0.812897 2.01343 -0.534145 
1.16918 1.5007 -1.17513 1.29364 -0.0826893 -1.82199 1.29585 1.51419 -1.0139 
2.00865 0.979813 -0.0727151 0.560182 2.16474 0.00958634 -0.51844 1.92477 -1.01316 
-1.37723 1.09433 -1.38047 -1.33024 1.34514 -1.19209 -0.369937 -2.16999 0.392789 
-1.66496 -0.543434 1.39018 -0.616971 2.02204 -0.728484 -0.76204 1.55516 -1.41449 
1.12789 1.43073 -1.29649 -1.94888 0.556293 -0.944677 0.668829 1.8909 0.988517 
1.52959 1.51347 0.608088 0.58004 1.65172 -1.39118 0.627168 2.09763 -0.45453 
0.266694 1.98453 0.995254 -1.81467 1.09342 0.715116 -1.5238 -1.10981 1.20265 
-0.409266 -0.914592 1.99901 2.17964 -0.37408 0.330524 -0.659397 1.86823 -1.03678 
0.593399 2.15589 -0.000894231 -1.24982 1.75552 -0.596717 0.0176816 2.18204 -0.488252 
-0.681598 1.9584 -0.836715 -0.929599 1.74527 -1.04397 0.00347172 2.20048 -0.397359 
-1.1881 1.88995 -0.128412 -1.00135 0.354736 1.9676 1.14063 1.20167 1.50165 
-0.494343 -2.09589 -0.602386 -1.82832 -1.19466 0.479591 -1.92714 -0.247346 -1.10678 
1.05234 0.312643 -1.94803 -0.610685 -0.0333906 -2.1508 0.425174 1.21766 -1.82662 
1.97971 0.741489 0.728655 1.23909 -1.6975 0.763639 1.63256 -1.16583 0.987717 
-0.381612 0.132368 2.19928 -0.861402 -1.84782 -0.918457 1.06203 -0.735884 -1.82499 
0.638728 -1.92557 -0.940326 0.000673236 -1.9185 -1.14863 1.16152 -1.86636 -0.409369 
2.13652 -0.649743 -0.1145 1.50487 -0.981473 1.3312 1.81933 0.0968401 1.29641 
1.87848 0.485255 1.11169 0.92145 -0.170425 2.03024 0.899297 -0.917979 1.82991 
2.20587 0.29155 -0.221708 1.83741 0.746223 -1.033 2.18351 -0.00621819 -0.481908 
1.41026 -1.5013 -0.870203 1.33106 0.0445196 -1.79619 1.20796 -1.86165 0.274003 
-0.699894 -1.66986 -1.31214 -0.257385 -0.125587 -2.21765 -0.95213 1.01927 -1.74772 
-1.88405 -1.11809 -0.447468 -1.30706 1.55351 -0.937123 -1.01058 0.311944 1.97013 
-0.935933 -0.430343 1.98465 -1.30909 -1.05479 1.47435 -1.60217 -1.54713 -0.198534 
-1.29515 -1.79929 -0.291808 -1.42802 -1.69058 0.320463 -2.09732 -0.709211 -0.313501 
-2.07963 0.16359 0.805226 1.05788 -1.85286 -0.669182 1.93509 -0.875184 0.699619 
2.07382 0.366422 0.751665 1.7692 0.92309 -1.00888 1.87334 1.07477 0.579212 
1.12959 1.80131 -0.692311 0.239202 2.21797 0.15291 -0.988943 1.28841 1.53688 
-1.19538 0.928885 1.64567 -2.13232 0.669816 0.0675535 0.403286 -1.70336 1.39138 
-1.18616 -1.50701 1.14975 -0.808248 -1.69466 1.21444 0.183358 -1.80265 -1.31028 
-0.877257 -1.91771 -0.743508 -1.54352 -0.620153 -1.4943 -0.771233 -1.08223 -1.79833 
-1.61264 0.102798 -1.54559 -0.374449 0.673515 -2.09909 0.210531 -0.0332094 -2.22589 
-0.263339 0.469599 -2.17028 -0.808085 0.400819 -2.04606 -1.35493 1.58287 -0.811594 
0.164969 1.52859 -1.62363 1.25022 0.742676 -1.69864 0.978872 1.97986 -0.349209 
-0.501006 2.17239 -0.172332 -1.37984 1.43882 -1.01283 -1.24536 1.84491 0.213033 
-2.218 0.277361 0.0597138 0.0477137 2.17246 -0.527378 1.20316 1.87354 0.205518 
-0.486909 2.16741 0.255407 -1.96326 -0.124968 1.06301 -0.769217 1.33109 1.62373 
-1.64114 1.22356 0.899747 -2.01582 -0.874052 0.415323 -2.08437 -0.70395 -0.399809 
-2.1719 -0.362166 -0.389442 -2.09492 0.730574 -0.278483 1.85939 1.0772 -0.618321 
1.90872 1.1606 -0.0988696 1.83237 -0.571148 1.14726 1.26534 1.84004 0.11475 
1.96497 0.359332 1.00488 0.382329 -1.86658 1.17034 1.88724 -1.19782 0.0597524 
0.673782 -2.01566 -0.695091 0.285809 -1.63992 -1.49298 1.71802 -1.41141 0.237326 
-0.154731 -2.21657 -0.250722 1.45446 -1.67784 -0.263451 1.06298 -1.36134 -1.42015 
0.0685512 -1.83316 -1.2786 1.55924 -1.52504 -0.492955 1.34078 -1.61687 0.766835 
1.66776 -1.4295 -0.418451 1.69313 -1.4437 -0.221435 0.973812 -1.1112 -1.67837 
1.07214 -1.37197 -1.40293 0.949378 1.51662 1.34109 0.557805 0.953187 1.9443 
2.1189 0.336102 0.630301 1.82931 1.26055 0.254235 0.571085 1.29009 -1.7348 
2.13307 -0.634552 -0.217593 1.17155 -1.17344 -1.50017 0.413042 -1.49445 -1.61122 
-1.29345 -0.649474 -1.70446 -1.73652 -0.36915 -1.35949 1.17764 0.229418 -1.88694 
2.18649 -0.349131 -0.312019 1.09501 -1.94727 0.0953354 0.549032 -2.16212 0.154329 
-0.792086 -2.08205 0.194064 -0.117808 -2.06957 0.838456 -1.05594 -1.89219 0.551897 
-1.22108 0.45015 1.81833 -2.17828 0.23845 -0.445228 -0.688201 2.02653 -0.647716 
1.71378 -0.0225502 -1.43613 -0.592649 0.859555 -1.97736 -1.86567 1.22629 0.124406 
-0.630764 0.703557 2.02661 -1.43382 1.63171 0.530743 1.23282 1.30127 1.33673 
0.6796 -0.0296675 2.13009 -0.964826 0.0750329 2.01581 -0.356051 1.7505 1.34498 
1.21506 1.45227 1.18933 -0.477706 1.33411 1.72972 -0.973085 0.615246 1.91692 
-0.652042 0.435497 2.09408 -1.04672 -0.0573121 1.97512 -2.01137 0.914281 -0.344217 
-1.6927 1.01755 -1.04851 -2.11065 0.0694124 -0.735085 -2.20103 0.139602 -0.368744 
-1.36122 -1.7639 -0.189022 -0.91505 -2.03937 -0.0604647 -0.0447354 -1.6915 -1.46179 
-1.69298 -0.735136 -1.2623 -2.2204 -0.239236 0.11225 -2.03393 -0.133734 -0.919377 
-0.512295 2.11904 -0.49721 0.664932 1.24552 1.73394 0.696473 -0.690928 2.00936 
0.827021 1.03414 1.80183 0.516436 1.33688 1.7164 1.32127 0.587241 1.70569 
0.581886 -1.68129 1.3545 -1.05164 -1.02021 -1.68915 -0.115767 -1.24436 -1.85423 
0.550324 -1.7908 -1.22073 2.02568 -0.882836 0.342404 1.51552 -1.58007 -0.454485 
1.54251 -1.0163 -1.26007 -0.913974 -1.82898 -0.905253 1.62804 -0.483128 -1.45468 
2.05035 0.63712 -0.624605 1.28998 1.17573 1.39772 2.01086 0.831007 0.515621 
1.12389 0.67124 1.81282 1.78399 0.888301 1.01405 1.55561 0.754948 1.41779 
-0.329155 0.477576 2.15953 -0.435153 2.10564 0.613941 -2.17051 0.282459 -0.457265 
-2.22756 0.162222 -0.108073 -1.9235 -0.893077 0.708925 -1.28335 -0.468363 1.77021 
-1.92986 1.08991 0.296206 -1.36854 0.70192 1.62308 -1.72756 0.0586412 1.41848 
-2.04752 0.883231 0.166007 -1.18707 0.744503 1.74258 -1.26055 0.623309 1.73854 
1.14891 -0.741338 1.7693 1.65273 0.227007 1.48894 0.477813 1.62155 1.46365 
-1.26585 1.63634 -0.848536 -1.55967 1.44862 -0.684776 -1.25577 1.66621 0.804223 
-1.90568 0.886445 0.763286 -2.09012 0.179987 0.773952 -0.624193 -0.668496 2.04046 
-1.43517 -0.973218 1.41178 -1.59243 0.75219 1.37781 -0.246001 2.12549 -0.649458 
-0.788411 1.76379 -1.12582 1.57952 -0.322338 -1.54958 0.245651 0.0320367 -2.2223 
-1.76681 -0.340691 -1.32752 -2.05897 -0.867067 -0.0940801 -1.89753 -0.305014 1.14296 
1.03528 0.0113107 1.98193 1.7085 0.226859 1.42463 2.08251 -0.0508961 0.812751 
1.99659 0.168005 0.992668 2.06777 0.212733 0.824048 0.122348 2.14594 -0.616431 
1.32311 1.33426 1.21208 1.4299 1.52934 0.78517 1.35155 0.943368 1.51108 
1.68606 -1.3923 0.467641 2.04223 -0.830064 0.374562 1.77274 -1.29591 -0.421917 
2.12295 -0.561549 0.4216 1.35633 -1.6551 -0.648841 1.50143 -1.62819 -0.307735 
0.0739825 -1.01592 -1.99059 -0.116595 -0.420939 -2.19299 -0.49944 1.06791 -1.90004 
0.0148961 1.24825 -1.85517 0.643753 0.958498 -1.91491 0.675521 1.13757 -1.80267 
1.82622 0.822485 -0.994195 1.49987 1.24766 -1.09258 0.378501 2.12016 0.601381 
0.303126 1.33416 1.76866 -0.499426 2.17957 0.00665875 -0.407478 2.18634 0.232138 
-1.07552 1.94472 0.247672 -1.60954 0.452924 -1.48467 -1.43457 -1.62013 0.563177 
-0.263596 -2.17769 0.433796 -0.861599 -1.98696 0.556453 -1.68754 -1.20634 -0.834838 
-0.805465 -1.59274 1.347 -1.04962 -1.49004 -1.29541 -2.01126 0.594336 0.77564 
-0.936059 1.97435 0.475108 -1.53756 1.44604 0.738146 -0.974351 2.00663 0.155108 
-1.06981 1.40971 -1.36683 -1.6951 1.4583 -0.00347124 -1.20693 1.54685 1.07265 
-0.522107 2.14563 -0.351685 -0.827647 2.06376 0.236412 -0.122953 2.15244 -0.593194 
-1.31481 -0.111708 -1.80522 0.41311 -1.61634 -1.48889 -0.808304 -1.89753 -0.863726 
-2.07665 -0.594619 -0.577898 -0.31452 -0.901814 -2.02183 2.10661 -0.46366 -0.589258 
-0.43607 -1.12151 -1.88469 0.255113 -1.07252 -1.94541 1.86776 0.364525 -1.17414 
2.14164 -0.0421659 -0.641577 1.09485 -0.816469 -1.7705 -0.668155 1.50789 -1.50992 
1.39017 1.72442 -0.306273 0.648585 1.42131 -1.59975 -0.210587 -0.550169 -2.15707 
-0.185994 -1.02523 -1.97846 -0.60284 -1.20707 -1.78314 -0.0761059 -2.22029 -0.254039 
1.74469 -1.32828 -0.437895 1.39889 1.72779 -0.240496 -2.04974 0.833424 -0.322464 