# vtk DataFile Version 4.2
vtk output
ASCII
DATASET UNSTRUCTURED_GRID
POINTS 5120 float
19.2331 10.1046 42.0674 18.4648 10.0828 41.4338 17.6462 9.58853 41.7554 
16.6641 9.62444 42.1022 15.8104 9.71196 42.5601 15.0282 10.1712 43.0951 
15.0799 11.1744 43.4845 15.0221 12.1656 43.6368 15.4354 13.0563 43.8964 
14.8054 13.5507 44.5998 46.0995 35.6364 12.8466 0.024265 36.2863 12.7055 
1.20008 36.527 12.4932 1.71415 37.056 13.0803 2.31027 37.6719 13.6424 
2.74654 38.1644 14.3178 3.29088 38.6049 14.9675 3.64364 38.0859 15.6769 
3.24288 37.2494 15.9609 3.00321 37.4357 17.0701 25.2245 5.89561 34.1888 
24.7406 5.05723 33.9049 25.5635 4.56965 34.0546 26.5307 4.36883 33.9042 
27.429 4.68877 33.7002 28.069 5.47585 33.76 27.5321 6.22352 33.9699 
26.9928 7.09701 34.0699 26.2921 6.98847 34.7288 25.2066 6.93467 34.562 
27.3525 41.0127 9.27174 27.5553 41.9453 8.92939 27.9554 42.6429 8.38498 
27.5956 42.9047 7.46901 26.6612 42.6076 7.03897 25.8039 42.2941 6.90238 
24.91 41.8823 7.21611 25.1553 41.6108 8.1689 25.7734 40.9528 8.58691 
26.6832 40.5579 8.48038 16.8908 7.95061 44.2198 17.7276 8.26796 44.5688 
18.1008 7.69705 43.8821 18.4154 7.27869 43.0522 18.7583 6.85268 42.1819 
19.5356 6.77091 41.6597 19.5764 6.31162 40.6557 19.1004 6.21035 39.8123 
18.1046 6.21591 39.8897 17.7208 5.90268 40.7529 6.61832 33.5125 17.0983 
7.63888 33.8005 16.9661 8.4271 34.1271 16.5378 8.32206 33.2231 16.1414 
8.08043 32.3645 15.7702 7.91865 31.868 14.9914 7.51219 31.7673 13.9647 
7.10988 31.6029 13.1068 6.55997 31.6575 12.2466 5.71288 31.0709 12.111 
24.0026 1.66325 26.9702 23.189 2.09968 26.8578 22.6648 2.63253 26.2018 
22.7395 3.41606 25.655 22.415 4.5272 25.3139 21.9807 5.23121 24.9092 
22.0714 6.16014 24.5784 22.3686 7.12607 24.703 22.7318 8.04897 24.474 
22.8484 8.97346 24.4894 37.7302 31.5784 44.5178 38.3127 30.9363 44.9749 
38.7451 30.0732 45.2784 39.354 29.2578 45.6052 40.384 29.1556 46.1173 
41.0301 29.2411 0.014006 41.6689 29.572 0.657141 42.3039 29.9104 1.56035 
43.0367 30.1091 2.36036 42.9927 31.1066 2.67534 22.4861 2.73949 24.9195 
22.5844 3.61711 24.5361 22.6937 4.5328 24.1645 22.7887 5.47876 24.2097 
22.8474 6.50194 23.9963 23.3354 7.16467 24.6969 24.1443 7.67773 25.1817 
24.894 7.40906 25.8333 25.1589 6.5875 26.2625 25.6245 5.86348 26.6904 
4.46416 32.4772 11.3284 3.64491 32.156 10.8642 3.15743 31.5054 11.3771 
2.64872 32.4256 11.4226 2.97567 33.3597 11.3927 3.47645 34.1586 11.677 
3.55277 35.1526 12.1362 3.7759 35.9902 12.6172 4.09535 36.9313 13.0706 
4.47503 37.7797 13.5177 3.47888 46.5483 34.1644 3.71288 0.315488 33.2897 
3.08675 0.737085 32.5636 2.78758 1.63172 32.5131 2.8 2.4558 33.0535 
2.7688 3.39358 33.2288 2.65355 4.42753 32.9856 3.17179 5.24123 33.3125 
3.28353 5.98958 33.9779 3.32396 6.30146 35.1852 25.1338 2.96818 29.0564 
25.0728 3.44672 28.1709 25.5052 3.01064 27.3761 25.4144 3.30145 26.4887 
26.0777 3.47262 25.6903 26.9209 3.64543 25.1749 27.6492 3.91319 24.557 
28.5004 4.26277 24.7852 29.1118 5.08912 25.0803 29.625 5.83847 24.8493 
2.44872 36.7382 15.2833 2.28965 36.885 16.2576 1.37051 36.8587 16.5323 
0.486166 37.0876 15.9263 46.5242 36.7447 15.4506 46.4543 36.4535 14.5265 
0.865442 36.5363 14.5101 1.35291 36.4051 15.3923 1.72639 35.8836 16.2886 
1.90024 36.0518 17.2904 45.8886 2.21578 35.542 46.6125 2.81558 35.6495 
0.749098 3.58094 35.3995 1.74017 3.62484 35.4002 2.88916 3.53408 35.4427 
3.80882 3.66912 35.6021 4.46702 4.29097 36.109 4.95307 4.78552 36.9072 
4.76979 5.15918 37.8448 4.17387 5.73128 38.5075 45.5531 33.3238 18.0326 
46.5592 33.6654 18.0899 0.85741 33.5754 18.0952 1.22707 34.0552 18.951 
1.80218 34.349 19.758 1.9165 35.0525 20.4961 2.31734 35.895 20.6398 
2.23867 37.1871 20.2806 2.08216 38.1983 19.9344 1.59946 39.0348 19.8848 
40.0779 30.289 45.4796 40.5524 30.2436 46.3018 40.6753 30.3163 0.478852 
41.0839 30.2336 1.42849 41.5441 30.6865 2.13584 41.8361 31.349 2.81528 
42.016 32.0908 3.50963 41.7939 33.0857 3.19785 41.4476 33.3402 2.2844 
41.1846 33.6455 1.42291 29.3764 9.44831 27.0645 29.4194 7.97846 26.6138 
29.0241 7.55738 25.7975 28.3629 7.64834 25.1396 27.8806 7.56877 24.2952 
26.9501 7.35868 23.7602 26.1148 6.8418 23.3931 25.3034 6.71708 22.9916 
24.5982 6.41338 22.2622 23.7068 6.28056 22.69 4.85118 38.0813 14.3028 
4.94474 37.1738 14.7413 5.08563 36.4696 15.8321 5.30223 36.7798 16.7845 
5.34819 37.6374 17.1896 4.54806 38.3267 17.2452 3.71602 38.5778 17.7717 
2.86124 39.1663 18.0854 1.93972 39.673 18.0116 0.843013 40.0063 17.8898 
28.0117 7.50066 20.9877 27.1541 8.07823 20.8792 26.2266 7.95911 20.4939 
25.2654 7.74031 20.7731 24.3348 7.69506 20.639 23.6361 7.1202 21.0804 
22.9521 6.56775 21.6654 22.0542 6.14011 21.7889 21.0993 6.0331 21.6622 
20.1464 6.27908 21.685 26.3227 41.2852 7.71591 25.5686 40.977 7.19219 
24.6688 40.5168 7.31171 24.2753 40.1339 8.10941 24.9649 39.8933 8.68466 
25.9269 39.7008 8.78605 26.8945 39.5854 8.44429 27.1106 40.1165 7.64208 
26.803 40.3043 6.74894 26.0295 40.6321 6.26326 19.6618 9.67092 23.0051 
20.3399 10.4905 22.8494 21.4993 10.7658 22.9248 22.1441 11.4569 22.9139 
23.0509 11.7641 23.2003 23.459 11.6539 24.0633 24.1151 11.5132 24.8167 
24.6624 11.1726 25.6778 25.1952 11.8629 26.1809 25.3182 12.6246 26.9234 
6.89141 34.1515 18.8024 6.32635 34.9645 19.0333 5.75674 35.7498 18.9012 
4.81228 36.0349 18.7262 4.0621 36.3792 18.2895 3.53106 37.1493 18.0749 
2.74207 37.889 18.4038 1.8041 37.6632 18.8457 0.838689 37.5246 19.1502 
0.221389 36.6969 18.7894 20.6289 3.26561 22.8565 20.1784 4.21085 22.7949 
19.7969 5.0656 23.0763 19.696 6.01048 23.0284 19.3974 6.86799 23.5028 
19.127 7.52005 24.1511 19.3359 8.4454 24.3501 19.5317 9.30107 23.9407 
19.9547 10.2235 24.0002 20.5684 11.0808 23.8836 16.8251 8.92224 40.2459 
16.1457 9.62599 40.228 15.4995 10.1805 40.7811 14.7052 10.328 41.2105 
15.1058 11.2373 41.4325 15.8391 11.7411 41.8066 15.4642 12.8476 42.4105 
15.0417 13.6344 42.8511 14.5165 14.511 42.3964 14.1364 15.0842 41.7402 
19.0442 5.2718 26.9765 18.7979 4.35586 26.9308 18.7354 3.44375 27.3576 
19.0531 2.84539 28.106 19.793 2.45672 28.5709 20.5883 2.15123 28.9381 
20.9411 2.28136 29.8616 21.4474 2.96405 30.4273 22.184 3.35943 30.9625 
22.6315 4.1831 30.4443 29.0012 9.77171 25.3096 28.8137 10.2584 24.4642 
28.3117 10.9467 23.9087 27.8607 11.7874 24.3615 28.0297 12.4181 25.1089 
28.12 12.7217 26.0352 27.8564 12.8418 27.1078 27.3461 12.5333 28.0779 
27.2619 11.7258 28.6569 27.4663 10.6822 29.1555 14.7187 15.929 41.7551 
13.92 15.8117 41.1611 13.3656 15.7174 40.2937 13.0062 15.7758 39.3696 
13.0305 15.0213 38.7269 13.2468 14.1376 38.3319 13.488 13.1763 38.5029 
13.3475 12.0978 38.9882 12.7287 11.4517 39.294 12.1777 10.7538 40.1507 
10.3833 11.2856 40.7201 9.72065 11.5771 40.0174 10.1884 12.41 40.1169 
10.8142 13.194 40.3088 11.6307 13.6959 40.6704 12.1941 13.4353 41.391 
12.2801 12.6335 42.1636 13.155 12.2144 42.8595 13.2098 13.0377 42.3376 
12.5631 13.8541 42.2267 45.4018 46.5849 39.1223 45.5532 46.2755 38.1237 
44.6269 46.0802 37.8915 44.316 45.4932 37.0674 44.3859 45.3065 36.078 
44.4649 45.3587 35.0632 44.5282 45.6251 34.0526 44.5121 46.4329 33.6064 
45.5566 0.574143 33.3509 46.0963 1.18394 33.9853 23.8478 5.60127 25.8761 
24.3387 5.53823 24.9378 24.9469 5.21821 24.2097 25.6023 4.51617 24.059 
26.2062 3.90261 23.5051 27.2301 4.10969 23.4559 27.8812 4.58167 22.9245 
28.3824 4.9268 22.1534 28.4829 5.65398 21.557 28.3578 6.66073 21.3234 
25.0014 28.3173 4.52235 24.2353 28.5994 5.30145 24.0892 27.7231 5.65889 
24.1041 26.6925 6.23734 24.2449 27.6633 6.74488 24.4378 28.6945 6.69736 
24.9676 29.2615 5.75617 24.651 30.2737 5.66654 23.934 30.5219 4.88761 
23.1321 29.9298 4.91515 11.2012 12.2327 42.7376 11.414 11.2977 43.0645 
11.4186 10.3984 42.9291 11.4154 9.54233 42.5016 10.9355 8.89953 41.8729 
10.538 8.27959 40.8439 11.2326 7.79333 41.2533 11.4684 8.1498 42.2923 
11.663 8.71468 43.0242 11.9972 9.03766 43.9159 1.32685 27.6454 14.389 
0.335132 28.0633 14.1907 46.4639 28.6776 13.8839 45.6469 29.3332 13.7282 
45.2605 30.135 14.2331 45.4797 30.8432 15.01 46.1636 31.3009 15.501 
0.0799766 31.9249 15.62 0.327421 33.0014 15.4585 0.269274 32.7655 16.4613 
24.1222 4.8614 32.9106 24.8183 4.1587 33.3245 25.8765 3.65121 33.5252 
26.8853 3.47131 33.7612 27.9319 3.5389 33.7952 28.5303 4.21723 33.4764 
28.9445 4.80717 32.849 29.5907 5.07218 32.1 29.9639 5.14827 31.1206 
30.519 5.67032 30.472 18.7438 6.0951 28.1661 18.0638 6.42931 27.3758 
17.9679 7.29516 27.0429 18.0193 8.20367 26.3454 18.3555 9.13159 26.0173 
18.8387 9.96711 25.8342 19.6075 10.4709 26.2296 19.9695 11.2832 26.4645 
20.5166 12.0904 26.6574 20.7772 12.9214 27.0938 22.9232 0.058483 26.9169 
22.1704 0.554073 26.7423 21.352 1.00944 26.3026 20.7659 1.6238 25.9085 
20.3212 2.44468 25.5823 19.8686 3.23849 24.9881 19.6859 4.1923 24.9497 
19.9551 5.29408 25.0004 19.8419 6.19402 25.4018 19.868 7.16862 25.8766 
16.401 16.5993 38.6525 17.2067 16.5115 38.0823 18.1912 16.3281 37.9494 
19.0174 16.0079 38.4278 19.9414 16.0983 39.1206 20.3217 15.2887 39.4583 
20.9617 14.6205 39.902 21.4241 13.9216 40.5004 21.7824 13.1151 40.9196 
21.5251 12.1936 41.1347 27.878 4.91361 27.5342 27.3277 4.06077 27.6907 
26.6297 3.41679 27.8658 25.9761 3.84579 28.7464 25.0312 4.0708 29.0389 
24.4436 4.33005 28.3984 24.0445 4.91173 27.6468 24.0998 4.95085 26.644 
24.3696 4.51459 25.5355 24.2264 4.45573 24.4432 45.9762 30.193 18.8442 
45.0866 30.5268 18.653 44.8024 31.3991 18.9361 45.2818 31.9443 19.6392 
45.7658 32.7496 19.6676 46.6663 33.3087 19.8032 46.6329 33.911 20.5509 
45.8931 34.1763 21.1862 45.1588 33.5028 21.2684 45.309 32.6296 21.5548 
20.7566 8.64396 40.3726 20.1239 7.97219 39.8131 19.2508 7.37557 40.3952 
18.3429 7.27089 40.3343 17.3885 7.1953 39.9251 16.4805 7.09691 39.4161 
16.5327 6.9138 38.4529 16.6215 6.85558 37.4002 16.8771 7.36076 36.3031 
16.6835 8.05572 35.3929 24.9017 28.8563 3.51633 24.049 28.9085 3.13624 
23.1764 29.0076 2.67758 22.4041 28.5752 3.05583 21.7189 27.7542 3.33152 
21.3682 26.8166 3.56429 21.3474 25.765 3.5609 21.1759 24.8022 3.16399 
22.0574 24.2886 3.06134 22.6721 23.5736 2.7859 24.2647 3.145 28.688 
[...]
POINT_DATA 5120
VECTORS mag_moments float
-1.63561 0.00599717 -1.52472 -2.20764 0.307299 -0.178615 -1.22389 -0.585663 1.77739 
-2.20375 -0.0740647 -0.371469 -2.08416 -0.31258 0.747366 -0.410467 1.9658 0.983441 
-0.54636 1.96711 0.912123 1.13067 1.92516 0.12382 -0.0341765 1.95525 1.08435 
-1.57479 1.57984 0.155404 1.46858 1.66756 0.250023 1.03839 1.85875 -0.683224 
1.40022 1.52766 0.84002 1.72293 0.772617 1.19774 1.64864 0.807804 1.2765 
0.957216 1.05548 1.72328 1.22758 0.800046 1.68907 0.722447 -2.11216 0.129892 
-1.15407 -0.821036 1.73033 -1.23908 -0.6588 1.74088 -0.886401 -1.77629 -1.02912 
1.05388 -1.93813 0.364666 2.12203 -0.409672 0.573733 2.09888 0.567876 -0.521732 
1.6976 1.41074 0.357745 -0.46439 2.18728 0.0125459 -0.717975 2.09838 0.285178 
-1.4357 1.04664 1.35768 -2.21519 0.105672 0.285936 -0.437051 -1.42367 -1.66798 
1.30354 1.78406 -0.343408 1.41369 1.62958 -0.588182 -0.138461 1.29096 -1.82051 
-0.693976 -0.24606 -2.11136 -2.13593 -0.641704 0.161336 -2.08564 -0.655633 -0.469289 
-1.73194 -0.806422 1.16192 1.45322 -1.29149 1.10464 0.670077 -1.90718 0.955858 
1.66519 0.282607 -1.46535 0.512406 1.53334 1.54477 1.92326 -0.312508 -1.097 
0.62509 -1.42337 -1.60726 1.3636 0.179843 -1.76302 0.246428 -0.929562 -2.01871 
1.95948 -0.0707008 -1.07491 -0.41321 -1.29149 -1.778 -1.74165 0.402985 -1.34323 
-1.65155 -0.998196 1.1296 -0.423595 0.660509 2.09387 2.07388 0.291707 0.78353 
2.09495 0.70117 -0.345758 1.63 -0.605896 -1.4057 -1.01965 -1.95864 -0.352202 
-0.222997 -1.6082 -1.53751 -0.493429 -0.268623 -2.16434 -0.908148 -1.04236 -1.75748 
-0.20053 -0.571812 -2.1524 -1.13885 -0.0870279 -1.92236 -1.77653 -1.22302 -0.590046 
-1.6634 1.08787 -1.02452 -1.17263 1.51565 -1.15228 -0.345901 1.55188 -1.57227 
0.702091 1.80024 -1.12526 -0.45106 2.07231 0.708579 -0.753355 1.56359 -1.40983 
1.07812 1.91578 -0.409205 0.915197 1.98103 0.487782 0.500865 1.86514 -1.12712 
0.44469 2.16369 0.347409 1.8886 -1.17266 0.240942 0.527805 -1.533 1.53992 
1.42935 -1.70115 -0.251089 2.15431 -0.195435 0.566338 1.68228 -0.424566 1.41057 
1.79975 0.662271 1.14991 0.401915 0.358018 2.17032 1.63232 1.05306 1.10752 
0.561255 1.63985 1.41276 -0.809216 2.0604 0.316096 0.387182 1.84987 -1.19502 
-0.230222 2.13602 0.62 0.417737 2.03469 -0.827979 -0.759309 2.09535 0.181547 
-0.556575 2.15809 -0.181296 2.23377 -0.0204684 -0.0991514 1.14529 0.360643 1.88633 
1.50246 -1.64413 0.198693 0.658325 -1.58669 1.43144 1.27486 -1.74989 0.559135 
-1.05857 -1.22247 -1.54434 -1.08885 -1.94926 -0.12166 -1.68268 -0.00286334 1.47261 
0.344171 1.27028 -1.80774 1.22973 1.76553 0.60882 1.11548 1.80333 0.709716 
0.994043 1.3107 1.51458 0.425243 1.63127 1.46906 0.544905 2.16264 0.161449 
0.893172 0.897075 1.84323 0.503588 1.37911 -1.68655 0.0838589 1.30918 -1.81081 
-0.497239 1.86912 -1.12212 -0.368484 2.11057 0.640081 -0.58332 1.90051 1.02361 
0.217317 2.15303 -0.563222 0.770332 2.05306 -0.437642 0.812613 1.63778 1.28737 
0.0924861 1.34554 1.78353 0.168317 0.745401 2.10144 -1.79537 0.0819166 -1.33039 
0.181881 -0.605264 -2.1449 0.354653 0.00445945 -2.20776 -0.651139 0.307922 -2.11688 
2.14717 0.114786 -0.613602 1.4888 0.098361 -1.66548 1.76946 1.2929 -0.444318 
1.95647 1.0675 0.1807 0.879698 2.02524 -0.352881 1.88172 0.998253 -0.680161 
1.96572 -0.680781 0.820049 -1.91556 0.532434 1.0233 -2.0997 0.763829 0.088512 
-2.03511 0.131858 -0.917024 -1.39358 -0.129167 -1.74392 0.814265 -1.03287 -1.80836 
1.55543 1.13666 1.13519 1.40082 -0.966048 1.45067 1.7246 -0.171538 1.41292 
-1.25701 1.06405 1.51252 2.18971 0.181377 -0.415056 1.73185 1.30602 0.543137 
1.41186 1.41397 -1.00366 1.72791 -0.95504 1.04987 2.17908 -0.353894 0.355466 
2.06326 0.858247 0.0797994 0.0804565 1.28793 1.82614 0.898089 1.15276 1.69251 
-1.16262 0.976619 1.6415 -1.48665 0.270686 1.64821 2.11179 0.185918 0.71119 
2.21232 0.321749 -0.045963 2.07678 0.374291 0.739517 1.05954 0.408133 1.92635 
0.760051 0.285461 2.08347 0.264959 2.2199 0.0429572 0.142697 2.00552 0.978537 
-0.623742 1.48086 -1.55499 0.624399 1.98058 -0.829105 -2.09182 0.620677 0.488921 
0.609863 -0.288211 2.1319 0.197288 0.0415347 2.22696 1.19264 0.39117 1.85057 
-0.309666 0.886769 2.02922 1.01076 1.44457 1.37535 0.503326 1.81226 1.20929 
-0.108552 2.1864 0.455914 -0.731039 1.33319 -1.63956 -0.429284 0.562456 -2.12117 
-0.990771 -0.872467 -1.80476 0.435149 -2.19235 0.0652599 0.181811 -1.27443 -1.82833 
-1.37032 -0.294629 -1.74224 -1.26232 1.13906 -1.45227 -1.99921 -0.862358 -0.509409 
-1.83702 -0.511954 -1.16759 -2.16362 -0.561584 -0.057966 -1.66611 -0.478717 -1.41242 
-2.18049 -0.486946 -0.0913784 -1.92478 -0.211381 1.11827 0.962454 -0.292345 1.99705 
0.587028 -0.991641 1.91626 1.06629 -0.522376 1.89477 0.870613 1.27568 1.61699 
-0.729941 2.08402 0.352189 -1.18058 1.34041 1.34519 -2.18127 0.0701582 0.486986 
-1.15305 1.82845 0.572065 -2.19568 0.293663 0.304525 -1.99721 -0.997678 -0.125729 
-1.55598 1.57623 -0.307259 -2.19028 0.432792 0.12398 -1.95056 -1.02216 -0.387915 
-2.10202 0.677628 -0.349777 -1.8776 -0.849911 0.867328 -1.3696 -1.61109 0.727034 
-1.03683 -1.5186 1.27234 -2.14798 -0.58182 0.218305 -2.17452 0.425295 -0.300963 
-1.87087 0.849223 0.882423 -1.47299 -0.420612 -1.62892 -2.0819 -0.795627 -0.180701 
-1.72224 -0.981331 1.03483 -0.0194604 -1.48112 1.67508 2.11658 -0.477106 0.540784 
2.12974 -0.614746 -0.293733 1.27332 0.304429 -1.81273 0.100981 0.930862 -2.03059 
-1.56948 0.202557 -1.57978 -1.94183 1.10707 -0.0607775 1.52377 1.62149 -0.221131 
1.53456 1.60703 -0.25016 1.77847 1.04645 -0.86138 1.5948 1.50086 0.451723 
1.08138 0.0684338 1.956 1.8718 -0.891984 0.837098 1.23415 0.356174 1.8303 
0.721105 -0.216212 2.10553 0.944669 1.41247 1.45345 0.261978 -0.559958 2.14891 
-0.882343 1.9043 0.771424 -1.14332 1.81543 0.630112 -1.59398 1.56787 0.0314936 
-1.37843 0.770595 -1.58307 -1.54819 1.37141 -0.849911 -1.55769 1.59228 0.195562 
-1.55316 0.953768 1.29539 -1.88411 -0.865306 0.837477 -1.5668 -1.56107 -0.328966 
-0.836682 -2.06105 0.228068 -1.06809 1.96104 0.116261 -1.1386 1.88649 0.380468 
0.0446383 2.1851 0.472591 -0.806201 2.07431 -0.21746 -0.781595 1.00155 1.84011 
-0.703095 1.7039 1.26585 0.691038 1.80139 -1.13024 0.720861 1.9813 -0.744869 
0.112494 2.21838 -0.257149 1.91354 1.09933 0.360348 -1.89178 1.18606 0.120099 
-1.3763 1.49031 0.940621 -2.07531 -0.225175 0.801483 -1.05927 1.96346 0.150872 
1.01847 1.92661 -0.500885 1.39613 0.96091 1.45858 -0.573386 2.15718 -0.133451 
-1.38667 1.61916 0.674878 -1.59146 0.865155 -1.31102 -0.957297 0.923243 -1.79756 
-0.561466 -2.15219 -0.22986 -1.34033 -1.7505 -0.37319 0.0981547 -0.571491 2.15957 
1.14976 -0.417856 1.87175 1.38824 -1.13433 1.33645 1.53739 -0.233543 1.60683 
0.398563 0.957768 1.98087 0.415557 1.20962 1.83416 1.37069 1.75685 -0.186282 
0.449245 0.674996 -2.08388 -1.06846 0.92019 -1.73541 -1.29655 0.35032 -1.7878 
-0.431561 2.10836 -0.607092 -1.11954 1.41297 1.32293 0.490188 1.50199 1.58233 
-0.201215 0.175821 2.22004 -0.86837 0.178553 2.05282 -0.179206 -0.425036 2.18797 
-0.0215113 -2.23061 -0.154701 0.410171 -2.1691 0.356026 -1.22388 -0.675061 -1.7454 
-1.056 1.01602 -1.68896 -0.827699 -0.627947 -1.98005 -0.177848 -0.261754 -2.21356 
0.715805 -2.09811 -0.292475 0.00616992 -1.98981 -1.02011 0.0817366 -1.82577 1.28837 
-0.742834 -2.05524 0.473482 -1.39917 -1.45235 0.965923 -0.404982 -0.0976158 2.19692 
-0.954817 -1.92205 -0.627741 0.256688 2.21905 -0.099731 1.47147 1.61707 0.468892 
1.88102 1.12827 0.43448 2.10564 0.0885786 0.747298 1.06123 -0.758912 1.816 
0.702345 -1.25272 1.71389 1.11508 1.90868 0.336934 0.113822 2.19474 -0.412503 
-1.38169 1.75216 -0.144418 -0.482332 -0.877482 -1.99935 -0.792046 -1.35471 -1.59293 
-1.30778 0.0761624 -1.81216 -0.118633 -1.41139 -1.73029 -0.309455 0.94117 -2.0046 
1.47271 -0.21518 -1.66878 0.426874 1.58686 -1.51646 -0.456683 1.96243 -0.969689 
1.34364 1.75041 0.361483 1.43715 0.696818 1.56494 0.613029 0.228947 -2.13817 
1.54052 0.355183 -1.58135 1.51544 -1.42852 -0.814108 1.58403 -1.42043 -0.687914 
1.98206 -0.797285 -0.660122 1.81227 0.940285 -0.911894 1.82128 0.808777 -1.0143 
0.499903 1.41472 -1.65791 -0.017333 2.09559 -0.779876 -1.17377 1.3216 -1.36954 
-2.21505 -0.121664 -0.280652 -1.16899 -1.25579 1.43404 0.718172 -2.0464 0.544487 
0.428467 0.164862 2.18843 -0.0543386 2.17914 -0.498415 1.56557 1.59211 0.11913 
0.263299 2.01158 -0.940321 -1.83398 1.25789 -0.232855 -1.63252 -0.198618 -1.51507 
-1.0393 -1.83367 0.746662 0.284609 -1.85346 1.21807 0.919902 -2.0323 0.153479 
-0.391941 -2.11884 -0.597413 0.758838 -1.77521 -1.12817 -1.36041 -0.745365 -1.6105 
0.102178 -2.14133 0.635819 1.17718 0.463472 1.84376 0.703758 0.656765 2.01826 
0.590511 0.532045 2.09003 1.06721 1.25444 1.51243 -2.1969 0.177002 0.377224 
-1.56575 1.18442 -1.07032 -1.4519 1.49868 -0.803723 -1.8235 1.11354 0.659435 
0.240702 2.12154 0.664183 0.692367 1.36134 1.63321 1.62108 0.883643 1.26146 
0.65761 2.06254 -0.559898 0.412178 1.37097 1.71771 -0.175502 -1.15767 1.90499 
1.43762 -1.43855 0.92942 1.03318 -1.70007 1.02094 1.95081 -0.484307 0.979679 
2.02463 -0.765181 0.561571 2.16166 0.521257 -0.235642 1.043 1.79453 -0.831757 
1.59237 1.4015 -0.707206 1.04396 0.901909 -1.75975 0.843795 0.447722 -2.02177 
0.954975 2.01964 0.095242 -0.981673 -1.20186 -1.60992 -0.873892 1.32221 -1.57736 
0.113693 2.00784 -0.977565 0.372595 1.86156 -1.18143 1.00109 1.98002 0.278116 
1.86297 1.2343 0.076393 1.90191 1.08069 0.463496 1.06283 1.95034 0.258039 
1.50725 1.62427 -0.2999 0.540686 1.73676 1.30051 -1.75625 0.943066 -1.01302 
-1.87001 1.20269 -0.237906 -2.02532 0.792928 -0.51897 -0.59475 2.03849 -0.700597 
-1.40017 1.11755 -1.33814 -0.604869 2.12633 0.335963 -0.00548668 2.22933 -0.173379 
-0.17851 2.22891 -0.0102978 0.43704 1.75299 1.31758 -0.85428 1.49781 1.42364 
0.56693 0.315224 -2.13991 2.15123 -0.371716 -0.483764 2.06443 -0.849115 -0.130958 
1.57506 0.404333 1.53483 1.54251 -1.06407 1.22001 0.749148 -2.05338 0.471587 
0.871125 -0.875242 1.86416 1.30688 -1.47457 1.05723 1.26005 -1.84626 -0.0601179 
0.0601084 -2.15766 0.583841 0.0267299 -2.15177 0.607593 -0.524475 -2.17343 0.0337542 
-1.93993 -0.294795 1.07228 -1.38381 -0.118361 1.75245 -1.69656 0.282321 -1.42898 
-0.958221 0.269365 -2.00231 0.405836 0.615934 -2.11091 0.533544 -1.40373 -1.65676 
0.414668 -0.349745 -2.16927 -1.45147 1.20521 -1.2003 -2.04628 0.62816 -0.646637 
-1.78142 1.16964 0.677112 1.21023 1.09615 1.52767 0.65832 1.63141 1.38026 
1.9736 0.999319 -0.325996 0.421519 0.872888 2.01504 -1.13494 0.764568 1.76843 
-1.98759 -0.0503163 1.02321 0.382525 -2.06745 0.761125 0.507186 -2.17035 -0.179903 
-1.5253 -0.980214 -1.30868 -1.86564 -1.2326 -0.00951625 -1.92956 -0.149533 1.12001 
-1.86059 -0.411333 -1.17005 -1.83296 0.79286 -1.0058 -1.33443 -0.9775 -1.50459 
0.736535 0.272574 -2.09361 0.545396 0.68835 -2.05638 0.556966 1.19783 -1.80416 
-1.19779 1.06449 -1.55954 -1.71538 -0.686133 -1.25963 -1.75248 0.918012 -1.04214 
-2.02242 -0.922655 0.241922 -1.27664 -1.61348 0.875719 -1.51809 -1.1272 1.19367 
0.211227 -1.9604 -1.05462 -0.598268 -2.12685 0.34438 1.01237 -1.89529 -0.618871 
1.79785 -0.830747 -1.03808 1.18981 -1.63789 -0.949572 -0.797571 1.7435 -1.1507 
-1.91112 0.732892 -0.900267 -0.566844 1.60477 -1.45031 -2.18979 0.416923 -0.176026 
-0.565596 1.92101 -0.994898 1.00731 1.86381 -0.71521 1.30062 1.81756 0.069661 
2.15819 -0.584864 0.0121088 2.01708 -0.854488 0.448579 1.32006 -0.846085 -1.59423 
-1.65984 -1.47908 -0.239237 -2.05674 -0.874627 -0.0695769 -1.71638 -0.747411 -1.22288 
-2.15312 -0.46949 0.378996 -1.7372 1.06076 0.92571 -1.90844 -1.0712 -0.458677 
-2.01211 -0.801788 -0.555471 -1.03922 0.226148 -1.96695 -2.09142 0.791153 -0.00508918 
-2.02611 0.906363 -0.270871 -1.6418 0.562089 1.41016 -1.87355 -0.585676 1.07088 
-2.02897 -0.35409 0.870564 -1.76003 1.25891 0.563409 -1.32411 1.30678 -1.24059 
-1.78378 -0.456194 -1.26887 -0.55572 -0.923766 -1.95904 -0.325316 -1.92948 -1.08226 
-0.600042 -0.982201 -1.91709 2.00366 0.934733 -0.334086 -1.58745 -1.51829 -0.418084 
-1.99396 -0.87992 -0.499878 -1.80052 -0.116893 1.32078 -2.11238 0.589002 -0.436944 
-1.87392 0.919204 -0.802171 -1.4942 1.26501 -1.08033 -1.80421 0.735637 1.09712 
-0.619194 2.07877 0.543426 -1.34157 1.55096 -0.891464 0.339772 0.665514 -2.10752 
-2.14522 -0.444659 -0.447552 -2.08126 0.816889 -0.0321513 -1.82422 1.29313 -0.00652468 
-0.692439 2.12605 0.020868 -1.59028 -0.203543 1.55871 -0.912766 1.46232 1.42424 
0.0508365 2.21875 -0.273046 1.29238 1.34857 -1.22928 1.32182 -0.867828 -1.58104 
0.459959 0.589555 -2.10734 -2.15746 -0.379707 -0.448544 -1.81256 -0.970039 -0.879565 
-1.56413 1.17322 -1.08493 -1.10334 1.83525 0.643822 0.0442451 2.18042 -0.493778 
-0.892837 1.97841 -0.537325 -1.44378 1.34172 1.05608 -2.05123 0.786929 -0.416173 
-1.91704 -0.870959 0.752582 0.801809 -0.695583 1.96806 1.49652 0.965539 -1.35209 
1.48528 1.58363 -0.534821 -0.292838 1.91972 -1.10856 0.786564 1.76397 -1.12682 
-0.573786 2.14882 -0.230957 -0.739764 2.10882 -0.0750539 -2.04936 0.367284 -0.815614 
-1.32825 0.798918 -1.61167 -1.80438 1.23033 0.480094 -1.54537 1.50431 -0.590648 
-0.225645 -2.141 -0.604328 -1.09603 -1.83181 0.665727 -1.93338 -0.460078 -1.02487 
-2.10376 0.21686 -0.726051 -0.131122 -0.19847 -2.22338 -1.1796 1.69118 0.865119 
0.204971 1.15191 1.90554 1.65491 0.794794 1.27654 1.00034 -0.342854 1.97022 
1.54756 -1.28934 0.970911 1.42743 1.67912 -0.378171 0.987629 0.0335805 -2.00586 
-0.87904 -2.0159 0.404285 -2.08147 -0.800156 0.165009 -0.560664 -0.730454 2.03767 
-0.263458 -1.3636 1.75248 -1.04131 0.30913 1.95451 1.3522 0.489579 1.71227 
1.60544 -1.29666 -0.86094 -0.105827 0.292817 -2.21429 1.3886 -1.28856 -1.18802 
2.12153 0.115894 -0.696913 1.84183 0.503814 1.16355 0.651804 -2.03624 0.654877 
0.494566 -2.17945 0.0735106 0.420533 -1.48634 -1.61677 0.353237 0.038067 -2.20766 
1.07969 -0.226773 -1.94496 0.0915671 -0.34282 -2.20773 0.337969 -0.473651 -2.15903 
-1.96382 0.373636 1.00191 -1.67636 0.155026 1.47166 -2.15149 -0.530959 0.298605 
-1.73399 0.179594 -1.40036 -2.07421 -0.362828 0.752328 -0.488657 -2.1799 -0.0961663 
-0.0454794 -1.88882 1.19595 1.56817 -1.10182 1.15188 2.15044 -0.598457 0.132172 
0.318985 -2.21315 -0.0143941 1.1634 -0.142474 1.90426 1.21778 -1.77092 0.617132 
1.5679 -0.638711 1.46073 1.18661 1.35466 1.32547 1.57023 1.50839 0.509053 
0.639407 1.93868 -0.912519 0.809264 1.34831 1.5897 0.191109 1.6165 1.53311 
-1.49307 1.48616 0.7497 -1.28296 1.82862 -0.100811 0.447596 -1.93896 -1.01984 
0.561082 -1.96268 -0.912735 -0.107951 -1.68462 -1.46643 0.0857187 -1.99514 -1.00601 
-1.74481 -0.567994 -1.27789 -1.25518 -0.163353 -1.84332 -0.927947 0.680008 -1.91742 
0.441985 0.681584 -2.08329 0.586378 1.2297 -1.77313 0.27743 -0.543554 -2.15118 
-1.90445 0.842598 -0.814307 1.26095 0.990626 -1.55842 0.837488 1.76521 -1.08749 
1.18944 1.52986 -1.11569 -0.296557 1.56562 -1.56872 -0.429892 2.08724 -0.677206 
-1.56816 0.340071 1.55731 -0.462993 2.0142 0.853596 0.963557 0.741058 1.8768 
0.587941 -0.394413 2.12103 1.11766 0.572984 1.85 0.0167017 1.00098 1.99944 
0.720115 0.901334 1.91547 -1.69295 -0.976338 1.08659 -0.705021 -1.25041 1.71448 
-0.425456 0.144704 2.19044 -1.27598 -0.360009 1.80063 -1.74728 -0.839554 1.11452 
-2.16936 0.0783777 0.536426 -1.38818 -1.74039 0.209711 -1.27624 1.68195 0.736379 
0.258823 2.05455 0.843711 0.795172 1.83679 0.996946 1.4639 0.669915 -1.55184 
1.17947 0.580312 -1.80889 2.17362 -0.253522 0.459472 -0.134694 -2.11528 -0.712339 
1.25807 -1.84483 0.117782 0.18399 -2.22621 -0.10068 0.0753138 -2.18568 0.46595 
-1.21851 -1.84063 -0.356804 -1.53841 -1.6114 -0.19161 0.181685 -1.45578 1.68751 
0.640832 -0.0702791 2.14112 0.617076 -2.14907 -0.0270406 -0.64469 -1.73602 -1.25324 
0.37638 -1.72166 -1.37631 0.615053 -1.4036 -1.62838 -1.89174 -0.84235 -0.843664 
-0.52871 1.09301 -1.87771 0.278536 -1.89291 1.15729 0.058483 -1.92184 1.14153 
0.840073 -0.312757 2.04853 1.64675 0.241208 1.49333 0.390585 1.3648 1.72765 
-0.0881285 1.87349 1.21748 -0.507749 -0.0502494 2.17708 -0.299876 2.1641 0.476179 
-1.74767 1.34352 -0.374955 -0.718735 1.08855 -1.81617 -1.8676 -1.10388 0.541756 
-1.58645 -0.203924 1.56255 -0.516928 -1.97223 0.918192 -0.967664 -1.20621 1.61514 
-1.3107 -1.13963 1.4083 -1.79845 -0.316648 1.29047 -1.2277 -0.673267 1.74341 
-2.18652 0.466052 -0.043993 -1.48597 1.18954 1.1734 -0.61291 2.14404 -0.165639 
-1.03915 -0.231886 -1.96631 -2.05292 -0.657552 -0.594276 -2.10863 -0.743449 -0.0308051 
-2.12697 -0.15609 -0.672025 -1.84484 0.112659 1.25851 -1.89927 0.112325 1.17479 
-1.94768 0.250527 1.06948 1.30316 0.684939 1.68305 1.96355 0.480098 0.95603 
1.67669 0.761171 1.26859 -0.863453 1.48048 1.43619 0.791614 0.43711 2.04506 
-1.08158 -0.604312 1.86145 -1.56467 -0.832628 1.36328 -2.14003 0.58895 0.27095 
-1.85071 0.0442482 1.25416 -0.675406 -0.101539 -2.12921 -1.4678 -0.000843318 -1.68688 
-2.00281 -0.360813 -0.926593 -0.143657 -0.418623 -2.19183 1.59588 -0.272035 1.54246 
-0.327716 0.460221 2.16352 0.789874 1.71437 1.19876 0.0389351 2.23553 0.0297488 
0.0976003 1.01636 1.98934 0.839912 0.83536 1.8965 1.12694 -0.735236 1.7859 
0.00510935 -1.68693 1.46773 2.01489 -0.95176 0.185424 1.36385 -1.75502 -0.24457 
-0.650323 -1.49828 1.52717 1.11544 -1.92727 0.203534 1.61408 -1.50155 -0.374281 
-0.171883 -1.7553 -1.37455 1.56024 -1.59969 -0.0815139 -0.00410816 -1.66757 -1.4897 
0.637731 -2.01017 -0.743309 0.870396 -2.04373 -0.256107 0.430651 -1.64666 -1.45019 
0.122146 -2.13867 -0.64123 1.14218 1.91487 -0.169435 0.728634 1.74837 1.1884 
1.14333 1.6233 1.02844 0.466697 1.7535 1.30668 1.064 1.4892 1.28459 
-0.300352 1.2421 1.83493 -1.08082 -0.0329373 1.95723 -2.07394 -0.232743 0.802884 
-1.2802 -0.968149 -1.55685 -1.99352 0.594073 -0.820347 2.04923 -0.821353 -0.355022 
-0.258573 -2.20239 0.287409 -2.19087 -0.347894 0.281155 -0.74885 0.4031 2.06803 
-1.48196 1.56396 0.598182 0.862773 2.06171 0.0704807 0.555763 2.1592 -0.1702 
1.59592 0.897283 1.28372 1.242 1.8202 0.379894 2.07704 0.745713 -0.36028 
-0.573272 1.26972 -1.74905 -1.35188 1.4152 -1.08149 -2.11743 0.58724 -0.414313 
-2.15712 0.57157 0.141958 -1.3169 -1.77464 -0.341213 -2.16928 -0.321895 0.43661 
-2.04187 0.359452 0.837598 -2.10333 0.419298 0.632618 -0.433227 2.1916 -0.0958445 
0.777699 2.0124 -0.587748 -0.673218 0.0482868 -2.13177 -1.33171 -0.483198 -1.73005 
-1.33126 -1.78227 -0.22638 -0.684944 -1.68764 -1.2972 1.01174 -0.951347 1.75252 
2.02628 -0.378071 0.866737 0.870573 1.5024 1.40887 -0.64306 1.11147 1.8306 
-1.88999 0.192845 1.17931 -2.02355 0.199243 -0.93035 1.23403 1.79811 0.493942 
0.563046 2.08707 -0.571944 2.03544 0.875309 0.301365 1.41072 1.46144 0.934913 
0.132976 -1.14012 1.91897 1.22037 0.160934 1.86676 0.867187 -1.5402 1.36959 
0.711166 -1.58571 1.40705 1.99875 -0.647243 -0.76555 2.18744 0.459327 -0.0642233 
1.77652 -1.0892 0.81094 0.66773 -1.25377 -1.72691 -0.447198 -2.01463 -0.860985 
-0.789163 1.05777 -1.80509 -0.528551 -0.924348 -1.96627 1.29866 -0.0949899 -1.81781 
-0.140261 -0.243389 -2.21835 1.7662 0.464973 -1.2901 1.66056 0.400953 -1.44284 
0.182903 1.70136 -1.43942 0.933593 1.50518 -1.36486 1.29132 1.46929 1.08336 
0.66846 1.86646 -1.03416 1.00541 1.00094 -1.72837 -1.80269 1.21853 -0.51526 
-2.16053 -0.513155 -0.262233 -0.854457 -0.143811 -2.06136 -1.29126 0.0616972 -1.82451 
-0.402255 2.11635 -0.599367 1.53783 1.11112 -1.18342 -0.0840102 1.92625 -1.13248 
-0.745119 0.37979 -2.07378 0.111225 1.26502 -1.84048 0.585719 2.01869 -0.762775 
-0.37187 1.47748 -1.63669 -1.56408 1.58891 0.170314 -0.176998 2.11478 0.704543 
0.574918 2.13412 0.339131 0.417729 2.19618 0.0478876 0.982929 1.96034 -0.436937 
1.11082 1.92099 0.275504 0.396669 1.53203 1.57973 -1.14856 -1.12579 1.55352 
0.31246 -1.67271 1.45066 -1.79834 -1.23696 0.485678 0.0241703 0.477712 -2.18431 
1.23736 -0.508081 -1.79187 2.06458 -0.78348 -0.351685 1.83955 0.942075 -0.853548 
0.738881 1.96609 -0.767171 2.11402 0.602656 -0.409527 2.15927 -0.538779 -0.217412 
2.04966 0.270382 -0.851936 -0.0544537 -0.0912755 -2.23354 0.336468 -1.48087 -1.64129 
-0.859863 -0.886987 -1.86384 -0.820855 -1.16185 -1.7252 -0.123187 0.150498 -2.22759 
1.17565 0.823457 -1.71457 -1.45112 1.67276 -0.310057 -1.0298 1.84317 -0.736351 