# vtk DataFile Version 4.2
vtk output
ASCII
DATASET UNSTRUCTURED_GRID
POINTS 5120 float
18.4453 10.2285 41.4852 17.7516 9.60272 41.6979 17.1217 8.75603 42.0775 
16.2584 9.28382 42.5179 15.2191 9.31398 42.5797 14.8372 10.0489 43.157 
14.7287 10.8148 43.8529 15.0048 11.5062 44.4679 14.9132 12.5003 44.1461 
14.3145 13.4893 44.0329 45.3101 35.7167 14.188 45.9656 35.9355 13.4916 
46.4914 36.648 12.983 0.400858 37.118 12.5108 0.541666 38.0311 12.8888 
1.22484 38.3291 13.5163 1.9136 38.6756 14.1407 2.0954 39.0023 15.0037 
2.74078 38.3342 15.6786 2.31646 38.1159 16.5661 24.1893 6.33413 33.1306 
24.8077 5.53858 33.1511 25.8646 5.65572 33.6595 26.6908 5.88477 34.2308 
27.5692 6.20399 34.0026 28.3107 6.82458 33.841 28.012 7.72721 34.1572 
26.9835 7.29048 34.2642 26.0653 7.10866 34.1197 25.2802 6.43305 34.2459 
27.3834 41.2281 9.85051 27.1481 42.1357 10.2561 27.0567 43.1007 9.7434 
26.412 43.4103 9.07382 25.9877 42.8538 8.22974 25.4729 42.228 7.72659 
25.0578 41.4151 8.07566 25.5954 40.9382 8.69651 26.514 40.912 8.97294 
27.1609 41.6359 8.94494 18.0619 8.4586 43.9773 18.8461 9.01365 43.5182 
18.8756 8.2102 43.0361 18.1535 7.53273 42.6771 17.3359 7.14603 42.2715 
16.6082 6.59462 42.0164 16.6684 5.53188 41.8095 15.8241 5.05217 41.7474 
15.6673 5.46972 40.9053 16.486 6.03627 40.7677 6.87701 34.8302 16.228 
7.70137 34.5951 15.7207 8.15371 33.8694 15.1919 8.1693 33.3162 14.3841 
7.96935 32.626 13.6621 7.38137 31.9105 13.2597 6.9828 31.477 12.4726 
6.2593 31.4259 11.8423 5.58175 30.7882 11.7595 4.92832 30.0261 11.7933 
24.0748 2.43144 27.505 23.4958 2.83433 26.8592 23.2599 3.57106 26.091 
22.7388 4.29667 25.6723 21.9872 4.8598 25.3707 21.5488 5.71765 24.934 
21.5553 6.65907 24.6707 21.7779 7.57428 24.8183 22.1122 8.44916 25.289 
22.1572 9.22487 26.1563 39.106 33.3853 44.2032 39.1172 32.4918 43.7358 
39.3959 31.6858 44.3041 39.904 30.8936 44.5147 40.1702 30.0285 45.0106 
40.4288 29.5367 45.8079 41.2092 29.7064 46.3747 41.6194 29.9521 0.414193 
42.0482 30.7913 0.604099 42.1666 31.7144 1.01806 23.0906 3.76674 24.8245 
23.055 4.44259 24.1744 22.9258 5.32703 23.8392 22.7776 6.17458 23.4119 
22.5113 6.87739 24.237 22.8255 7.56757 24.7956 23.829 7.67954 25.0939 
24.6266 7.54068 25.6362 25.3473 7.04897 26.1325 25.7182 6.23685 26.5991 
4.61707 32.4746 11.5535 4.08617 31.7863 11.049 3.18977 31.5438 11.4459 
2.86539 32.2245 12.0213 2.89935 33.2564 11.7409 2.80973 34.224 11.6068 
2.96372 35.1595 11.3735 2.91739 36.0808 11.605 3.69036 36.2338 12.1926 
4.44494 36.7086 12.8864 3.43687 45.7428 35.084 4.01027 46.2419 34.506 
4.23618 46.6019 33.6297 4.05089 0.790562 33.4708 4.25709 1.7944 33.5044 
4.21023 2.78343 33.4638 4.46144 3.70539 33.6651 4.28427 4.54433 34.0831 
4.20936 5.50501 34.1432 4.04584 6.30909 34.7684 25.6699 4.12891 28.6991 
25.4608 3.84438 27.8073 25.7633 3.52347 26.9373 25.9266 3.55078 25.7608 
26.5616 3.86478 25.0823 27.0799 4.04579 24.3772 27.9279 4.34203 23.9983 
28.7248 4.65072 24.3139 29.6907 5.2442 24.5272 29.7264 6.14148 25.014 
2.28124 37.9337 14.8185 2.00934 37.5131 15.7966 1.19518 37.3756 16.4021 
0.22667 37.1938 15.9639 46.5355 36.4773 15.5715 45.8921 36.1959 14.8151 
0.156726 35.9349 13.9734 1.12946 36.4712 14.3618 2.03901 36.6715 14.7955 
2.45182 36.4303 15.6631 1.00872 3.66126 35.8964 1.57816 3.39545 35.1257 
2.30051 3.84056 35.7064 3.30445 3.81695 35.9675 4.11716 3.31624 35.5069 
5.05235 4.18544 35.7298 5.47277 4.70166 36.5344 4.98708 5.05008 37.4652 
4.99128 5.64529 38.3095 4.51717 6.60422 38.4413 0.037203 33.6795 17.5213 
0.936698 33.6759 17.7862 1.33043 34.0606 18.6195 2.08938 34.4842 19.2729 
2.04984 35.0674 20.0289 2.28701 35.9125 20.5616 2.43243 36.8877 20.4795 
2.34372 37.6725 19.8544 2.27918 38.5419 19.4303 2.43235 39.4983 19.2284 
40.0332 30.5832 45.9367 40.95 30.6973 46.4001 40.969 30.7956 0.600924 
41.2738 31.2114 1.39209 41.9034 31.5273 2.21914 42.443 32.2605 2.58524 
43.2811 32.6071 2.24757 43.1408 33.5285 2.0864 42.3602 33.9272 1.60133 
41.6246 34.1902 0.964812 28.2338 9.93974 26.3631 28.4352 9.03221 26.2821 
28.3624 8.14295 25.7606 28.2921 7.63172 24.8904 27.8672 7.9476 24.1021 
26.9383 7.94789 23.6495 26.0652 7.78352 23.3245 25.3825 7.34539 22.881 
24.6142 6.79238 22.6764 23.633 6.31784 22.8117 4.79735 37.3061 13.8026 
5.24031 37.3493 14.7111 5.02233 37.4182 15.8128 4.61057 37.9043 16.6179 
4.03546 38.1973 17.3939 3.54973 39.0256 17.4452 2.85141 39.7007 17.3586 
1.92884 39.9653 17.5647 1.02974 40.5326 17.4989 0.0368341 40.273 17.0584 
28.0154 6.81149 21.0282 27.4121 7.51363 20.604 26.6322 8.19485 20.6331 
25.4586 8.28694 20.6544 24.5449 8.18981 20.9122 23.7773 7.59643 20.9993 
22.8489 7.20635 21.3614 22.1461 6.55429 21.3495 21.5023 5.90067 21.6478 
21.0828 5.10522 22.2096 27.2046 42.7409 6.92646 26.224 42.9671 6.60879 
25.4486 42.3748 6.49291 25.1191 41.551 7.04327 25.9252 41.2159 7.58885 
26.8541 41.1439 7.78901 27.8221 41.1934 8.19692 28.1242 42.1337 8.42805 
28.0027 42.9771 7.89239 27.6785 43.6887 7.26172 19.4942 9.05708 22.3611 
19.8563 10.006 22.5188 20.5233 10.5817 23.111 21.3582 11.0875 23.5419 
22.2931 11.2558 24.071 22.9524 11.5805 24.8599 23.6201 11.7894 25.5031 
24.2445 12.2994 26.1267 24.4589 12.8151 26.9283 25.1596 13.0602 27.5953 
7.29745 34.9203 18.1299 6.6371 35.8239 18.4934 5.74856 36.2577 18.4213 
4.77252 36.7609 18.33 3.95013 37.0864 17.7161 3.24135 37.9059 17.8479 
2.46695 38.1516 18.3266 1.49258 38.0836 18.7466 1.28006 37.1432 18.6372 
1.55704 36.3088 18.5345 19.6751 4.3843 23.5606 18.7067 4.6505 23.5335 
18.4137 5.49741 23.8339 18.0665 6.24216 24.4995 18.2999 7.07728 24.1465 
18.3898 8.04836 24.0447 18.5008 8.99764 24.0027 18.3455 9.95741 23.9522 
19.1226 10.6513 23.9772 19.9901 11.0924 24.121 16.3676 9.1063 39.786 
15.7062 9.61342 40.2038 15.026 10.3762 40.4124 15.0065 10.9126 41.1852 
15.7943 11.514 41.6437 15.8296 12.3344 42.4724 15.7585 12.8679 43.3662 
14.8063 13.3325 43.0987 14.0605 14.4437 42.2779 14.0129 15.0422 41.4947 
17.4449 6.09206 26.5016 17.8542 5.19801 26.5898 18.247 4.30047 26.9276 
18.8865 3.71504 27.5008 19.1754 3.55126 28.344 19.7248 3.20715 29.0644 
20.7861 3.39343 29.2575 21.3585 3.88096 30.0812 22.2866 4.17711 29.9585 
23.1165 4.6135 29.674 29.0116 10.4201 24.5776 28.1568 10.8843 24.2819 
27.6455 11.6422 24.5249 27.8998 12.3622 25.0799 28.0629 12.9157 25.8464 
27.9858 12.7836 26.8079 28.122 13.0697 27.788 27.3427 12.7582 28.3826 
26.9377 12.1003 28.9389 27.4805 11.7283 29.66 13.5554 15.5339 42.2918 
13.2273 15.7732 41.3748 13.0231 15.7464 40.2763 12.9674 15.6947 39.2802 
12.7113 14.8521 38.7099 12.5818 14.0192 38.2201 12.8289 13.0651 38.0915 
13.2659 12.5256 38.7686 13.4059 12.1958 39.6826 12.7586 11.7277 40.3892 
8.63981 10.5697 39.8692 9.04762 10.1209 40.6248 9.31098 10.926 41.1373 
9.62915 11.8048 41.4273 10.0307 12.7681 41.9536 10.6356 13.2473 42.6249 
11.6068 13.4886 42.4849 12.5504 13.0648 42.3687 13.0044 12.2281 42.7184 
12.8379 13.0304 43.4594 45.1902 1.46109 39.2483 45.6568 0.83659 38.641 
46.1645 0.368331 37.9505 45.7423 0.00964942 36.9947 45.2362 46.5721 36.17 
45.6133 46.3394 35.1056 45.9185 0.15773 34.3954 45.6972 0.964928 33.8444 
46.4148 1.69355 33.8784 0.470536 1.96742 34.0846 23.8084 5.62463 26.0557 
23.9856 5.60737 25.0273 24.573 5.25853 24.2909 25.2942 4.70405 24.0026 
26.225 4.68836 23.6835 27.1626 4.85644 23.2032 28.0978 4.62905 22.9534 
28.7387 4.95815 22.311 29.2518 5.83679 21.9922 28.7894 6.51126 21.4872 
27.0382 27.2153 3.61822 26.5999 27.8742 4.56663 26.249 27.3375 5.37675 
25.4348 26.9045 5.6595 25.333 27.577 6.41983 26.0763 28.0371 6.08653 
26.3784 28.5296 5.32419 26.2257 29.6814 4.92858 25.481 29.7245 5.68175 
24.8744 29.6901 6.50779 11.0484 12.2054 43.3523 10.5129 11.3458 43.3991 
10.8417 10.5985 42.8424 10.7672 9.67099 42.8864 11.5352 9.16451 43.2264 
12.0825 8.86369 44.0179 12.789 8.25622 43.6739 13.3846 8.71971 44.3866 
13.0215 8.79199 45.3431 12.0039 8.82304 45.1566 0.559136 28.2442 14.1829 
46.3502 28.6405 14.3152 45.552 29.2307 14.222 44.9312 30.0614 14.2987 
45.1174 31.278 14.2868 45.1809 31.994 14.8861 45.4801 32.1796 15.7962 
46.4538 32.2109 15.7844 0.63919 32.4282 15.3527 0.87096 32.8405 14.3732 
24.2075 4.09486 32.2597 24.9749 4.27687 32.7998 25.7602 4.27797 33.2606 
26.7081 4.41633 33.6449 27.4981 5.0253 33.7528 28.31 5.47962 33.8354 
29.0287 5.88014 33.2023 29.4585 5.83498 32.3405 29.8406 5.70454 31.4324 
29.6878 6.10569 30.5263 18.1183 7.75193 28.2085 17.5389 7.77127 27.3511 
17.388 8.5818 26.6056 17.6034 9.42133 26.2474 17.6688 10.2901 25.8089 
18.273 11.0751 25.9461 19.1104 11.6017 26.2512 19.839 12.0668 25.7391 
20.5125 12.7879 25.7226 21.0735 13.5852 26.1539 23.8847 0.0432361 25.5697 
23.0701 0.632139 25.4924 22.3638 1.37921 25.595 21.591 1.9273 25.3676 
21.2257 3.09974 25.5404 20.5722 3.84264 25.3909 19.9296 4.62368 25.4868 
19.6413 5.5306 25.524 19.4103 6.38936 25.983 18.8046 7.11677 26.0775 
15.6683 16.4786 39.9954 16.1531 17.0699 39.4063 16.5902 16.4388 38.8261 
17.3412 16.0059 38.2226 18.2857 15.7845 37.9849 19.1994 15.3477 38.3404 
19.922 14.7068 38.6423 20.3519 14.0529 39.3016 20.9157 13.3387 39.9368 
21.02 12.6621 40.6123 28.5868 5.25741 27.4526 27.9102 4.41786 27.0899 
26.9541 4.06192 27.0842 26.2192 4.5684 27.5808 25.6902 5.10828 28.235 
24.784 4.63295 28.3188 24.3033 4.65683 27.4239 24.4238 5.00896 26.5652 
24.5056 5.08023 25.6534 24.8144 4.52603 24.8585 45.5126 29.8465 18.4129 
45.3898 30.8626 18.6499 45.2302 31.6887 19.2215 45.707 32.3772 19.8499 
46.1677 33.0641 19.4545 46.5156 34.0278 19.5279 46.6979 34.9633 19.9052 
46.0905 35.2102 20.6271 45.6664 34.7403 21.4554 46.2887 33.977 21.4386 
19.3369 7.78897 39.3101 18.8105 7.09753 38.8087 18.4916 6.27698 39.2949 
17.5689 6.51522 39.4503 16.6599 6.65012 39.1644 15.7385 6.56624 38.4955 
15.6972 6.41567 37.5156 15.8722 7.41215 37.3855 15.6442 8.33878 37.1704 
15.3349 8.73567 36.3707 25.8411 28.9335 3.01304 24.8595 29.165 3.22951 
23.9806 29.2153 3.61826 23.175 28.9163 4.14468 22.2463 28.0857 4.4119 
21.8308 27.1633 4.5974 21.9742 26.1446 4.58473 22.0713 25.1501 4.70723 
21.9464 24.0954 4.97364 22.1561 23.0719 5.00332 24.2499 3.5802 27.7219 
[...]
POINT_DATA 5120
VECTORS mag_moments float
-1.9407 -0.974252 0.533408 -0.857222 -2.06521 0.00786293 -2.01984 -0.943469 -0.173566 
-2.12674 0.171279 0.669056 -1.05452 1.06333 1.66052 0.0438785 1.95613 1.08242 
0.0908024 0.75098 2.10423 1.41519 1.66044 0.490067 -0.961069 1.81213 0.890252 
-1.00208 1.28695 -1.52957 2.02902 0.109596 -0.933299 0.143686 1.6661 -1.4844 
2.00538 0.664225 -0.732981 0.633919 2.14254 -0.0875541 1.17156 1.8258 0.542128 
1.58713 0.0939725 1.57232 1.32712 0.829199 1.59725 0.715754 0.163421 2.11211 
-1.10772 -1.34719 1.3993 -0.0991771 -1.11761 1.93419 1.22487 -1.7667 -0.615195 
2.04281 -0.819509 0.394118 1.9927 0.496572 0.884623 1.89629 1.07816 0.491577 
1.97911 1.03027 -0.147208 1.32362 1.80131 -0.0576489 -1.78213 -0.384932 1.29454 
-1.90943 -0.656562 -0.960723 -2.03975 -0.378775 0.834232 -1.69665 -1.42508 0.300903 
-0.197112 2.21636 0.221111 -0.774291 1.9643 0.736213 -0.803715 1.4406 -1.50954 
-0.810978 -1.15964 -1.73135 -1.53614 -0.996399 -1.28353 -0.881136 -1.90245 -0.777346 
0.0141802 -1.44188 1.70903 1.91937 -0.421881 1.06679 1.90116 1.17711 -0.00112152 
1.0472 1.91396 -0.490009 1.77521 0.704957 -1.16261 1.35132 -0.27683 -1.75991 
-1.67667 -1.44194 -0.331043 -1.92513 -0.927267 -0.658836 -2.00783 -0.977506 -0.114379 
0.0439135 -1.66725 -1.48941 -1.11306 -1.93936 -0.00195316 -1.75117 0.149977 -1.38236 
0.796265 1.75455 -1.13469 2.04036 0.913367 0.0519136 1.57048 -0.764834 -1.39593 
1.70328 -1.15293 -0.877254 0.240878 -1.88413 -1.17985 0.776699 -1.10744 -1.78053 
-0.987249 -1.9865 0.281383 -0.822862 -1.03116 -1.80544 -1.92145 -0.14073 -1.135 
-1.28838 -1.10242 -1.45766 -1.46791 -1.52295 0.725166 -1.25527 -1.5866 -0.952362 
-0.840735 0.974722 -1.82841 -1.3354 1.50751 -0.971663 -0.250524 1.13798 -1.90847 
-1.82143 1.16893 -0.562118 -1.59894 1.30783 -0.856132 -0.211545 2.12166 -0.673645 
-0.428431 2.17903 -0.261273 1.23479 1.77208 0.578811 -0.0241204 2.22034 0.263634 
-0.176282 -0.487353 2.17518 -0.101288 -1.84048 -1.26586 0.985179 -1.90169 0.642656 
0.594948 -1.68402 1.3454 0.422708 -2.06893 0.73542 0.572489 -1.50766 1.54894 
1.51703 -0.355611 1.60379 1.51783 0.86972 1.39276 1.13762 1.63388 1.01796 
1.0858 1.79234 0.7801 0.431607 2.19252 -0.0810089 -1.02826 1.24553 -1.5464 
-0.423067 2.09898 -0.644433 0.165148 2.02444 -0.935076 -1.18911 1.89334 0.0360176 
-0.216464 1.8394 1.2529 1.77632 1.00452 0.914111 2.02023 -0.604278 0.743984 
2.14404 0.29494 0.562231 0.0723391 -1.96495 1.06478 0.474949 -2.0635 0.71861 
-1.05063 -1.5593 -1.21028 -2.10978 -0.605947 0.426191 -1.70178 -0.426956 1.38624 
0.649568 2.13961 0.0112279 -0.434841 2.03491 -0.818562 0.526561 2.10591 -0.536558 
-0.0636062 2.19944 -0.39802 0.793158 1.62716 1.31272 1.97462 -0.934641 0.476792 
0.585316 1.54546 1.50631 1.97555 0.904412 -0.528423 0.732093 0.845733 -1.93618 
1.15042 1.01758 -1.62514 -0.723876 1.94411 -0.834539 0.656072 2.02017 0.69891 
0.573581 2.07735 -0.596356 -0.20578 2.20423 0.314674 -0.205495 2.2058 0.303702 
-0.228729 1.30058 1.80449 -1.79562 1.22423 0.526326 -1.57262 -0.338182 -1.55322 
-0.247345 -0.698987 -2.10956 0.682029 -1.03865 -1.85904 0.763831 -0.1713 -2.09457 
1.65802 1.36936 -0.613029 1.2302 -0.136963 -1.86222 2.23265 -0.00599906 0.123369 
1.34067 1.62976 0.739246 1.37212 1.23966 1.25719 -0.760475 1.79413 -1.09671 
0.207005 -0.538022 2.16048 -1.23262 -0.893658 1.63769 -1.81195 -0.156863 1.30085 
-1.23682 -0.978904 -1.58494 -1.2514 -1.53961 -1.03132 0.398826 -0.821281 -2.04118 
2.04019 0.909048 -0.106036 1.94129 0.662999 0.889849 1.76231 0.608499 1.23451 
0.125307 -0.0613437 2.23171 0.607004 -1.65769 -1.37245 2.22218 -0.231257 0.0918207 
2.00295 0.799636 0.590583 2.10403 -0.648698 0.390186 2.05999 0.623724 -0.606127 
0.621667 1.87507 1.04768 0.630441 0.846541 1.97127 0.218445 0.737927 2.09946 
0.424963 1.27272 1.78874 -2.00143 0.800124 -0.595035 2.10132 -0.636576 0.42335 
1.82104 -0.0292912 1.29729 1.70447 -0.342837 1.40614 1.19753 1.67258 0.876576 
0.113758 0.817008 2.07835 0.360023 2.17065 0.398332 -0.655097 2.13792 -0.012157 
-0.458778 1.53377 -1.56112 0.0706662 2.22638 -0.195502 0.257436 2.21197 -0.202236 
1.679 -1.27582 0.743806 -0.293873 0.862083 2.04217 0.798923 -0.458293 2.03757 
0.934247 0.959105 1.79089 0.912218 1.51326 1.37036 1.29902 1.53199 -0.982631 
1.14725 1.87294 -0.419424 -1.23656 1.65785 -0.849977 -1.27435 0.310298 -1.81101 
-1.74078 0.972675 -1.01173 0.341718 -2.20613 0.127421 0.667367 -1.98266 -0.789743 
-0.778372 -1.29639 -1.64727 0.46509 0.283121 -2.16876 -1.48082 0.122911 -1.67095 
-2.01625 -0.64228 -0.722634 -2.16461 -0.468886 -0.307588 -1.34336 -1.40498 -1.10518 
-1.58809 -1.57415 0.00149058 -1.91299 -0.351751 1.10306 0.986059 -0.113166 2.00372 
-0.10943 0.731365 2.11024 -1.6998 -0.366917 1.40573 -1.02732 0.313829 1.96115 
-1.89594 1.10144 -0.438462 -1.13849 1.60859 1.05655 -2.2197 0.135925 0.233344 
-1.81303 1.22206 -0.468512 -2.10755 -0.431361 0.610064 -2.07926 -0.806643 -0.16127 
-1.36769 1.19357 -1.30569 -0.811672 2.07053 0.232627 -2.1543 0.575493 0.166717 
-1.92408 -0.643934 0.939819 -1.81188 -1.28218 -0.270376 -2.03401 -0.916424 -0.151527 
-1.58942 -0.988118 1.22367 -2.00326 -0.935963 0.333043 -0.634866 -1.80997 1.14932 
-0.885638 -2.01536 0.392379 -1.98662 0.124453 -1.01876 -2.19023 -0.350805 -0.282542 
-1.62989 -1.48035 0.389926 0.343376 -1.72488 1.3809 2.03298 -0.466812 0.805641 
2.13949 -0.509181 0.404148 1.48505 0.583641 1.56652 0.102881 1.9073 -1.16259 
-0.425968 1.5563 -1.54806 -1.25328 0.854448 -1.64293 0.282338 2.04929 0.848937 
1.26094 1.65846 0.812118 1.55969 1.08486 1.17917 1.03345 1.9798 0.111214 
1.92108 -0.0971634 1.14017 1.428 0.310685 1.69242 1.20064 1.11035 1.52498 
0.297049 0.787541 2.0716 1.14754 1.15845 1.53008 0.160951 -0.56305 2.15802 
0.513655 2.06516 0.686498 -2.21593 0.236132 -0.184149 -1.50068 1.19402 1.14991 
-1.49559 1.12114 -1.22729 -2.03197 0.804479 -0.473212 -1.16172 1.35664 1.34534 
-1.98509 0.018368 1.02912 -0.349377 -2.20091 0.184214 0.298861 -2.21514 0.0617741 
1.52515 -1.63088 0.118857 -2.05259 0.816122 -0.347595 -1.91174 1.12942 0.263915 
0.239468 1.62117 1.52133 -0.492953 2.16091 -0.295762 1.09328 1.77005 -0.819541 
0.390334 2.18915 -0.235093 0.502389 2.17695 0.0921563 0.0144338 1.93358 -1.12296 
1.74218 0.693949 1.21788 1.48256 1.6631 0.190059 -1.49673 1.29837 1.03637 
-1.5141 -0.185835 1.63492 -1.00556 1.95803 0.393627 0.504584 1.58227 1.49727 
0.6351 2.13801 0.159941 0.436467 1.03069 1.93576 -1.27768 1.23495 1.35736 
-1.15086 1.68008 -0.923496 -0.128142 1.21977 -1.86969 -0.783598 1.76682 -1.12442 
0.0557936 -2.20481 -0.368399 1.5328 -1.50162 0.629009 0.566403 -2.07292 0.618219 
0.777379 -0.558581 2.02081 0.0741124 -0.151932 2.22967 1.86463 -0.621537 1.06623 
1.06888 1.19402 1.55943 1.88768 0.778634 0.911251 1.32233 -0.810246 -1.61088 
1.33622 1.67886 -0.629254 -1.0379 1.51241 -1.27883 -2.22535 -0.218282 0.0130154 
0.410514 1.3642 1.7235 1.2881 1.50498 1.03723 0.832604 -0.566792 1.99638 
-0.57175 0.164653 2.15546 0.626328 0.407649 2.1075 -1.42163 -1.50996 0.836056 
-0.546773 -0.415733 2.12796 1.05489 -1.73621 0.934229 -0.980871 0.361579 -1.97665 
-1.23357 0.610326 -1.76233 0.545064 0.213506 -2.15808 -0.612056 -1.06799 -1.86676 
0.0283361 -1.26347 -1.84468 -0.212388 -2.08969 -0.76687 1.05448 -1.65694 1.06893 
0.681346 -1.37098 1.62978 -0.0534163 -0.391867 2.20081 -1.54986 -1.32275 0.921009 
0.1575 -2.03515 0.912893 1.67988 0.541749 1.37277 -0.278555 2.04423 0.862276 
1.12683 1.68971 0.935481 0.799706 1.85325 0.962264 1.85824 0.441761 1.16266 
1.63472 -1.08514 -1.07246 1.46348 -1.62236 0.475549 -0.623444 -0.909195 1.94543 
-0.524469 2.17 0.126556 -0.257987 -1.32618 -1.78176 1.27531 -1.14965 -1.43244 
0.284373 -0.0652252 -2.21695 -1.68675 0.279434 -1.44111 -0.107045 -1.59732 -1.56113 
1.13004 0.0859087 -1.9276 0.332159 1.36715 -1.73798 -0.17904 2.22815 -0.0575214 
1.74559 0.0549475 1.39638 2.22541 0.212336 0.0494687 0.0810061 0.223848 -2.22336 
0.224486 -0.138389 -2.22046 1.14157 -1.87095 -0.443129 2.06506 0.297871 -0.804242 
2.02346 -0.263567 -0.914399 2.02501 -0.642023 -0.69795 1.53491 0.287308 -1.60047 
2.0032 0.232586 -0.965962 -0.649077 1.87745 -1.02658 -1.41425 0.670443 -1.597 
-2.0781 -0.453948 0.689528 0.215542 -0.191133 2.21743 -1.50373 -1.58266 0.483738 
-2.0498 0.469973 0.759908 1.48388 1.66687 0.140071 1.53339 1.03726 -1.25412 
-0.360183 1.87013 -1.1717 -1.65302 1.25492 0.832293 -1.14549 -0.929375 1.68051 
-1.00688 -0.794603 1.83161 -1.55126 -1.38681 0.818737 -1.20887 -1.54774 -1.06917 
1.33726 -1.79091 0.0659863 1.06781 -1.68038 1.01789 1.33695 0.501396 1.72081 
1.4476 -1.69158 -0.207364 2.06582 -0.789563 0.3301 0.738712 0.114614 2.10741 
-1.43583 -0.117292 1.71015 -1.65304 1.23585 -0.860316 -2.08493 0.808125 -0.0023287 
-2.17104 0.0695736 0.530809 -1.57096 1.39552 -0.764597 -1.22037 1.85932 -0.231544 
0.599194 1.6758 1.35376 0.407187 1.8794 1.14108 2.01982 -0.575455 0.767589 
2.21617 -0.100556 -0.280143 1.62777 0.528652 -1.43906 -0.353425 1.9541 -1.0279 
1.88682 -0.578035 1.05157 1.66902 0.369126 1.44157 1.71344 -0.323414 1.39983 
1.97645 0.938921 -0.460524 1.64013 1.48508 0.323272 2.20914 0.308954 -0.155693 
0.845933 0.688561 -1.95199 1.44273 0.146707 -1.70206 0.6632 0.58585 -2.05352 
-0.613934 0.791401 -1.99919 -1.83208 1.04329 -0.74501 -0.550205 -0.440537 -2.12207 
0.49148 2.07198 -0.682164 0.50316 2.00324 -0.856654 0.741685 1.97425 -0.743138 
1.87821 1.13146 0.438325 2.17817 0.503152 0.0489431 1.68963 1.32814 -0.617391 
0.956074 1.72094 1.06032 1.39365 1.73181 0.242061 -1.65848 1.47478 -0.27287 
-1.88158 1.10519 -0.488081 -1.23564 1.76595 -0.595497 -1.83467 1.25079 0.263655 
-0.335288 2.18712 -0.322597 -1.5893 1.5674 -0.131795 -0.309943 2.16578 0.461858 
-1.34402 1.60095 0.794076 -0.0628318 2.07514 0.83058 -1.56969 1.58128 -0.188765 
0.61557 1.0627 -1.86862 1.54921 -0.568828 -1.50877 1.3705 -1.66436 -0.592988 
1.83124 -0.0647222 -1.28155 2.12652 -0.690255 0.0384271 2.10837 -0.687146 0.287408 
1.19816 -1.76889 0.65989 0.0296279 -1.28382 1.83056 0.966135 -1.33866 1.50817 
-0.214817 -1.56437 1.58322 0.351476 -1.56965 -1.55328 -1.92634 0.0754742 1.13292 
-2.03594 -0.153634 0.911782 -1.15706 1.00861 1.62601 -1.63145 0.17327 1.51932 
-1.27808 -1.81412 0.274782 0.251228 0.26039 -2.2066 -0.863823 -0.345811 -2.03328 
1.09428 -0.456312 -1.89587 1.0823 -1.49969 -1.25681 -0.821847 1.95971 0.695783 
-0.407335 2.13951 0.506535 -0.81932 1.95569 0.709915 1.91941 0.661485 -0.937176 
1.07708 1.95932 -0.0310078 0.091216 1.99323 1.00932 0.979171 1.93488 0.545385 
-1.16227 -0.887576 1.69155 1.07325 -1.4024 1.37165 0.82198 -2.06816 -0.216978 
-1.48771 -1.2763 -1.076 -0.511354 -2.16977 -0.174956 -1.56749 -1.38098 0.797413 
-1.97922 0.44716 -0.939531 -2.06361 0.416445 -0.753709 -1.61333 -0.387911 -1.4989 
0.551126 1.98882 -0.860724 0.20459 2.06612 -0.830233 0.147765 1.90474 -1.16196 
-0.515872 1.67365 -1.39024 -0.0906623 1.15798 -1.91072 -1.60144 0.816553 1.3299 
-1.95288 -1.07593 0.169279 -1.59213 -0.610731 1.44642 -0.247128 -2.1738 0.462094 
-0.461462 -2.16453 0.319172 0.318721 -2.20935 -0.13115 -0.571242 -2.15837 0.122916 
-0.118447 -2.23272 -0.0304163 1.09779 -1.93948 0.182422 -2.23592 0.00876104 0.0243484 
-1.66232 0.6835 -1.33024 -0.687776 1.14843 -1.79111 -1.91332 0.270918 -1.12508 
-0.802145 2.08696 -0.0343345 0.261274 2.21183 -0.198838 1.50442 0.811795 -1.44143 
1.98092 -0.548498 -0.880407 2.03975 0.756428 -0.516943 1.22756 -1.37216 -1.26896 
-0.594851 -1.52317 -1.52516 0.0154032 -2.14848 0.619527 -0.625913 -1.36341 1.65811 
-2.00993 -0.899186 0.389413 -2.11791 -0.675681 -0.240686 -1.93255 0.690442 -0.888002 
-2.16798 0.498658 -0.226288 -2.20748 0.306419 -0.182006 -1.54096 0.772174 1.42449 
-1.87712 1.19731 -0.207056 -1.89638 -0.968697 0.682181 -1.73137 0.83662 1.14124 
-1.80782 1.00119 0.854048 -1.50604 1.61095 0.36973 -1.16328 1.77635 -0.700974 
-1.2886 -1.53945 -0.984682 0.240689 -2.19784 -0.334033 -0.983556 -1.49313 -1.34283 
-0.857383 -0.659576 -1.957 0.115481 0.450705 -2.18713 -2.22603 -0.187505 0.0981948 
-1.29591 -1.69016 -0.681146 -2.16857 -0.152212 -0.5236 -1.81219 0.283477 -1.2789 
-1.58185 1.57593 0.119218 -1.70502 1.37936 0.436212 -1.76222 1.37009 -0.132039 
-1.65476 1.26198 0.818023 -0.847821 1.52351 -1.40005 0.64168 2.05913 -0.590102 
-1.6912 -0.952285 -1.11041 -1.88391 1.14503 -0.373867 -1.21552 1.73519 0.715298 
-1.6742 1.47165 0.176927 0.0723687 -0.995153 2.00111 -1.10867 0.752015 1.79034 
0.403303 2.16608 -0.381351 1.07633 0.298419 -1.93713 0.604046 -0.149881 -2.14771 
-1.1518 1.36398 -1.34644 -2.10277 0.552143 -0.522977 -2.09636 -0.261714 -0.732657 
-1.6517 1.49339 -0.204112 -1.00037 1.86781 -0.714513 -1.18521 1.89549 -0.0491557 
-0.627018 1.46601 1.56769 -0.92728 1.20342 1.64071 -1.37442 1.62549 -0.684659 
-2.06731 0.711297 -0.469355 -1.62879 -1.50746 0.273182 0.647417 1.50169 -1.52505 
-0.104636 1.48846 -1.66539 -0.470948 1.27301 -1.77698 -0.485932 1.13398 -1.86493 
-0.433967 1.82469 -1.21745 -0.863001 1.90456 -0.792393 -0.964591 2.01595 -0.0743346 
-1.33258 1.39546 -1.13001 -1.95329 -0.445558 -0.993044 -1.68431 1.11706 -0.956702 
-0.757929 1.03326 1.83246 0.5423 2.07375 0.636766 -2.16708 0.546677 0.0702063 
-1.48841 0.788026 -1.47094 0.543101 -0.16964 -2.16247 2.14449 0.170168 0.610069 
1.65009 0.468633 1.43443 0.144921 -1.27415 1.83181 -0.640957 -0.0947747 2.14014 
-1.02233 -1.91255 0.544964 -0.763811 -2.0539 -0.445056 -0.79357 -2.04815 -0.418707 
-1.09804 -1.59346 1.12036 -1.05705 -0.303059 1.947 -2.2109 0.206936 0.262907 
-1.78415 -0.135597 1.34105 1.05466 -0.557126 1.89137 1.84238 -1.12419 0.584657 
1.89231 -1.16296 -0.258229 1.70337 1.43572 -0.192944 1.87157 -0.796612 0.92879 
1.86039 -1.09964 -0.57424 2.23544 -0.0291882 0.0444146 0.724039 -2.09218 0.313926 
0.607756 -1.7609 -1.23688 -0.0938451 -2.0693 -0.842144 -0.318764 -0.714132 -2.09485 
1.42053 0.775022 -1.54319 1.35216 0.795164 -1.59355 1.45948 -0.171775 -1.68536 
-1.6203 1.50008 -0.352711 -2.05017 -0.483953 0.750073 -2.17306 -0.409883 0.331384 
-2.0864 -0.572392 -0.565086 -1.92447 -0.816981 -0.793067 -2.15484 -0.0662047 -0.593517 
-1.39218 -1.74095 0.175853 0.627722 -1.5703 1.46291 1.8111 -0.0388746 1.31088 
2.1024 0.72185 -0.242565 -0.466578 -2.0685 0.709666 1.0954 -1.75213 0.854476 
1.7113 -0.572905 1.32032 1.52696 1.01428 1.28047 1.41832 1.43931 -0.957475 
0.0644725 2.04624 0.899299 0.215282 2.16728 -0.506491 -1.38711 1.25702 1.22304 
-1.51019 1.30528 1.00776 -1.65583 -1.09615 1.02795 -0.036076 -1.39482 -1.74734 
0.248141 -2.16627 -0.495693 0.195177 -2.22258 0.148412 -1.44012 -1.16936 -1.24846 
-1.00875 -0.992138 -1.7315 -0.548818 0.380276 -2.13405 -0.254402 0.57895 -2.14478 
-0.817603 0.650445 -1.97698 -0.35241 0.0844443 -2.20651 1.19827 -0.185933 -1.87872 
-0.580296 1.35739 -1.67951 0.456984 2.07028 -0.710702 -0.254821 2.04923 -0.857736 
1.69375 -0.0203938 -1.45972 1.13266 1.91448 0.227729 -0.498593 2.15055 0.355695 
-0.868438 2.04716 -0.234407 -1.48802 1.53807 0.648178 -1.78881 0.838027 1.0478 
-0.413385 -0.62649 2.10633 -0.224879 1.15801 1.89959 -0.449301 0.855234 2.01661 
-1.16353 1.79532 0.650407 -1.87648 0.0554631 1.2148 -1.1464 -0.827665 1.73227 
-2.14511 0.555762 0.299386 -1.27627 -0.134218 1.83115 -0.734052 1.05631 1.82904 
-2.21577 0.132108 -0.270041 -1.49084 -1.65322 -0.210416 0.905545 2.00651 -0.392287 
-0.11691 1.92893 -1.12497 2.08312 -0.0311228 -0.812194 1.47431 0.968151 1.37444 
2.19906 -0.118478 0.387428 1.92832 -1.01777 0.495681 1.64311 -1.44917 -0.447317 
0.17858 -2.18042 -0.462455 0.442242 -2.14814 0.435792 0.665593 -1.98609 -0.782593 
-0.907218 -1.8079 -0.953122 -1.82065 -1.29433 0.0996035 -0.816008 -0.470308 2.02804 
1.27629 0.485804 1.77062 2.07357 -0.815927 -0.185955 1.4434 -1.68003 -0.306764 
0.197503 -1.15017 -1.90738 -1.71548 -0.516241 -1.33814 -0.415934 -0.918422 -1.99587 
-1.36196 0.700904 -1.62905 -0.181315 -2.19045 0.411158 0.777737 -1.43731 1.52619 
0.968952 -1.20839 1.61274 0.831136 -0.817723 1.90802 0.644415 -0.0597358 2.14036 
0.543858 1.07129 1.88588 0.350041 1.12469 1.90067 0.856428 1.81888 0.978871 
-0.0858309 1.96466 -1.0643 -0.0103531 1.18298 -1.89748 -1.86697 -1.09766 -0.556369 
-1.68402 -1.42709 0.357045 -1.48004 -1.59529 0.514317 -1.08436 -1.94025 0.244081 
-1.977 -0.886636 0.552578 -0.794136 -0.495568 2.0307 -2.15363 -0.226353 0.557361 
-1.24868 0.790781 1.67793 -0.983545 0.358249 1.97593 -1.45317 0.697029 1.54999 
-2.08651 0.376845 -0.710244 -1.6852 -0.293367 -1.44015 -2.11232 -0.131282 -0.721706 
-2.15633 0.511125 -0.298298 -1.24024 0.959065 1.59436 -1.70823 0.587144 1.31804 
-1.86665 -0.250987 1.20524 0.491134 0.334866 2.15561 1.05152 1.96092 0.221638 
2.10331 0.657427 0.379316 0.309071 1.01105 1.97035 0.635574 0.241235 2.13022 
-0.285016 -0.754502 2.08554 -1.72335 -0.621629 1.28205 -1.54419 0.18071 1.60712 
-1.25476 -0.446318 1.79621 -1.07146 0.34821 1.93151 -1.96437 0.508514 0.939511 
-1.72352 0.536916 -1.31955 -1.30856 0.674635 -1.68301 1.78061 0.856945 -1.04645 
1.48544 -1.6335 -0.353769 -0.760193 -1.67935 1.26566 -0.120715 1.45282 1.69551 
0.964584 1.58112 1.25285 0.550275 2.10568 0.513129 -0.950361 -0.000824359 2.02406 
1.10769 -1.85541 0.574882 1.12763 1.04988 1.62056 1.95736 0.899183 0.60019 
0.331395 -1.97451 0.995735 6.06315e-05 -2.11217 -0.733994 1.19383 -1.87803 0.218612 
1.36111 -1.63485 -0.688942 0.510834 -2.16269 0.248666 0.64098 -1.11014 -1.83214 
-0.411938 -0.990744 -1.96182 -0.268364 -1.47148 -1.66215 -0.433313 -0.963365 -1.97083 
-1.1228 0.890537 -1.71647 0.6756 2.03389 0.637849 1.06003 0.991534 1.70094 
1.7056 1.02408 1.02088 1.62359 0.686502 1.37575 0.291702 1.6058 1.5285 
-1.09059 1.03519 1.65499 -0.0682538 1.2743 1.83616 -1.98896 0.480895 0.901533 
-2.08646 0.326666 -0.734828 -2.10085 -0.74426 0.18032 -0.317905 -0.164201 2.20725 
-1.57766 -1.56398 -0.254859 -1.88072 0.927219 0.776628 -2.19037 -0.442112 -0.0824477 
-1.84474 0.58045 1.1225 -0.886278 0.548095 1.97841 1.3604 1.2946 1.2138 
1.40529 1.60158 -0.678316 1.3966 1.13329 1.32859 0.8292 0.606344 1.98615 
-1.54261 0.519104 -1.53326 -1.60165 1.42836 -0.628096 -1.79846 1.1071 -0.73477 
-1.61005 1.4512 0.549316 -1.68676 -1.332 0.616937 -2.02591 -0.867842 -0.377547 
-1.72842 -0.288749 1.38895 -1.38569 1.44247 0.99958 0.690703 2.03338 -0.623125 
0.724428 2.09837 0.268413 -1.95627 0.409413 -1.00268 -1.75036 -1.23507 -0.640969 
-0.528236 -0.360468 -2.14267 -0.343051 -2.07494 0.759552 1.64114 -1.47972 0.342198 
1.04859 -0.485855 1.91426 1.25782 0.408661 1.80302 -1.43603 1.54407 0.744098 
-1.59397 1.56491 -0.101524 -1.82951 0.606503 1.1336 2.11455 0.634411 0.355226 
1.92633 1.12066 0.182623 1.94113 0.898779 0.651301 2.08139 0.157969 0.801797 
1.87702 0.702353 0.991717 2.03697 -0.229482 0.893363 1.91603 -0.169066 1.14028 
1.85309 -1.14971 0.494196 1.81463 -1.16916 -0.583264 0.287485 -2.16961 -0.458402 
-0.240061 -1.59452 -1.54916 -0.757177 -1.77312 -1.13257 0.138669 -1.61944 -1.53563 
-1.4968 0.135285 -1.65568 0.792129 1.12646 -1.76171 0.592676 1.69687 -1.33017 
1.06283 -0.389753 -1.92834 1.31011 -0.823756 -1.61401 1.44328 -1.26489 -1.1476 
1.94161 0.706321 0.855145 2.14096 0.476555 -0.434963 2.03105 0.739538 -0.572632 
1.77233 1.33259 0.288173 0.386909 1.72009 -1.37536 -1.73585 1.19965 -0.740044 
-2.09947 0.41869 -0.64569 -1.81117 0.684596 -1.11848 -1.61355 -1.00174 -1.18024 
-0.280512 0.0812092 -2.21692 0.493653 1.01856 -1.92843 -0.0629582 2.18061 -0.490873 
-1.34353 1.30203 -1.22459 0.0903774 1.96823 -1.05732 -0.00865474 2.23377 0.100934 
-1.61166 1.11594 -1.07575 -1.63914 1.49984 -0.252415 -2.10856 0.427056 0.609589 
-0.788023 2.02632 0.522529 -0.700974 2.07405 0.454937 1.16179 1.86779 -0.402005 
1.17171 1.77905 -0.679764 -0.939268 0.212238 2.0181 -1.98847 -0.212543 1.0004 
-1.69942 -1.13411 0.908729 0.33159 -2.12892 -0.598134 0.988428 -1.65818 -1.12847 
1.34889 -1.12432 -1.38434 -0.251749 1.27035 -1.82286 1.3669 1.72203 -0.407642 
1.23978 1.70202 -0.752384 1.71669 -1.02147 -1.00478 0.948284 -0.0363907 -2.02471 
1.41859 0.0896921 -1.72614 0.981729 0.972935 -1.75773 -0.80369 1.03718 -1.81062 
1.24971 -0.941244 -1.59759 -0.489337 -1.82913 -1.18946 -1.08451 -1.78218 -0.804779 