# vtk DataFile Version 4.2
vtk output
ASCII
DATASET UNSTRUCTURED_GRID
POINTS 5120 float
19.425 11.555 42.1312 18.7793 10.8482 42.1642 18.2646 9.94173 41.9362 
17.2667 9.92352 42.029 16.4592 10.2119 42.5094 15.6779 10.8005 42.7425 
14.9951 11.413 43.1294 14.3327 12.5559 42.8344 14.3732 13.4422 42.5451 
14.1297 14.3996 42.2271 0.199224 35.7323 13.9539 0.680706 36.4179 13.5011 
1.07831 37.1277 12.7976 1.4743 38.0316 12.9881 2.17546 38.3394 13.8123 
2.78328 38.726 14.4615 2.97105 38.2045 15.25 3.40811 37.7901 16.0156 
3.80142 37.5928 16.8461 3.2502 37.4722 17.7475 24.5039 6.01962 33.6582 
25.1308 5.62149 34.2347 26.0351 5.09218 34.1788 27.0182 4.92804 34.0586 
27.981 4.92342 34.3563 28.0491 5.65368 34.9913 27.3753 6.45924 35.157 
26.8274 7.2237 34.8677 25.8666 6.96303 34.8027 25.1602 6.5509 34.2861 
24.3694 40.3626 9.67576 25.3189 40.0734 9.28461 26.0744 40.6687 8.70004 
26.5122 41.5354 8.60276 26.5857 42.4428 8.40143 25.2615 42.6024 7.96617 
24.5954 42.1923 8.57446 24.1258 41.3073 8.69528 23.8935 40.7548 7.84613 
23.5406 40.5867 6.94666 16.9208 8.48099 44.3327 17.6804 9.08173 44.4587 
18.587 9.17077 44.3992 19.5095 9.23852 44.0999 20.1654 8.53696 43.5646 
20.4872 7.72953 43.1211 20.1977 7.26651 42.2314 19.926 7.2487 41.2594 
19.4062 7.23634 40.425 18.6207 6.98143 41.0925 5.9681 33.3751 18.2258 
6.72184 34.1071 17.9396 7.21643 33.6925 17.1869 7.2857 32.7236 17.0914 
7.07358 32.2826 16.2342 6.91476 31.7803 15.4105 7.12648 31.9056 14.398 
7.40281 32.2225 13.4659 6.73448 32.043 12.78 6.16824 31.4554 12.0771 
24.4029 1.92658 27.7724 23.557 2.50023 27.2017 22.7912 2.94802 26.7742 
22.5793 3.7835 26.1959 22.6075 4.27265 25.234 22.383 4.99151 24.6701 
22.0994 5.90623 24.7173 22.5319 6.85571 24.8476 21.9271 7.64887 24.6446 
21.9483 8.49651 25.1786 37.9883 32.0519 44.8109 38.6443 31.002 44.8648 
39.0885 30.2027 45.3905 39.7695 29.8366 45.9913 40.517 29.3303 0.37972 
40.6166 28.737 1.21425 40.7514 28.2357 2.30605 41.3653 28.742 2.93571 
42.2994 29.0893 3.35728 43.1434 29.5338 3.55787 22.8769 2.86675 25.5476 
23.0556 3.37167 24.5558 23.3126 4.31537 24.2558 23.292 5.28012 23.7519 
22.9856 6.09387 24.1915 23.5521 7.02051 24.5309 23.9576 7.71937 25.1256 
24.7635 7.55786 25.8078 25.2555 6.49644 26.5365 25.6352 5.69693 27.0312 
4.93824 32.7449 11.6977 4.11788 31.7793 11.1935 3.14806 31.748 11.2654 
2.91738 32.2712 12.2346 2.82689 33.2562 12.3518 2.96209 34.1701 12.1486 
3.3415 34.9179 11.6472 3.87305 35.6726 12.1893 4.12952 36.3633 12.8602 
4.00274 36.8256 13.6948 2.95267 46.7254 32.6024 2.5642 0.799932 32.2329 
2.634 1.73118 32.0525 2.60212 2.69651 32.0477 2.56325 3.41773 32.6397 
2.52568 4.29561 32.9346 2.3133 5.06463 33.4086 2.30608 5.88186 33.9308 
1.79543 6.86516 34.7457 1.59397 7.45854 35.5684 25.1588 2.86101 29.186 
25.3052 3.25857 28.2894 25.8346 2.98223 27.4825 25.9544 2.91598 26.3724 
26.6621 3.59113 26.0855 27.1681 3.69327 25.2385 27.9709 3.95445 24.8683 
28.8362 4.25785 25.1706 29.7353 4.7401 25.1532 30.4775 5.40108 25.2939 
2.85179 37.1594 15.2548 2.87672 36.9303 16.1743 1.97801 37.1748 16.5137 
0.9305 37.0663 16.3861 0.390862 36.906 15.4632 0.633869 36.5437 14.5949 
1.71845 36.8044 14.699 1.77802 36.6343 15.7614 2.38987 36.0853 16.377 
2.67121 36.7771 17.1607 46.0741 2.23455 35.7255 46.7225 2.87311 35.3636 
0.325419 3.53253 34.7588 1.18696 3.51197 35.1114 1.84073 3.9942 35.6727 
2.55918 4.32259 35.1321 3.56834 4.66827 35.1844 4.0504 5.09366 35.9217 
4.1048 5.91659 36.5568 4.04292 6.12174 37.4719 45.7774 33.1929 17.9069 
46.5226 32.5508 17.8759 0.489288 32.6844 18.4963 1.03238 33.0473 19.1712 
1.29796 33.6063 19.8422 1.21963 34.6741 20.0725 1.76254 35.2178 20.6923 
1.50097 36.2005 20.5261 1.70723 37.1603 20.2572 1.21337 38.0917 20.217 
40.0123 30.6932 45.4678 40.4709 30.4442 46.4004 40.7241 30.4446 0.627488 
40.8043 29.6837 1.34586 41.012 29.6932 2.30192 41.6019 30.1393 2.92229 
42.1616 31.1688 3.20793 42.2671 32.1926 3.51096 42.1614 33.1238 3.24504 
41.906 34.1636 2.76608 28.9254 9.7349 26.8391 29.3613 8.76923 26.5698 
29.4551 8.08153 25.6861 28.6327 7.98541 25.2333 28.003 7.67177 24.3562 
27.0643 7.32055 23.8606 26.2627 7.00271 23.3781 25.479 6.5345 23.131 
25.1553 5.72772 22.7859 24.3544 5.26646 23.0417 4.68597 37.3289 14.3347 
5.30244 36.9603 14.9503 5.83382 37.0907 15.7495 5.61521 37.3105 16.6267 
4.88883 37.875 16.8552 4.41778 38.0568 17.6362 3.96999 38.7984 18.191 
3.20004 39.2211 18.6722 2.2732 39.4675 19.0333 1.38152 39.25 18.7269 
27.4587 6.69767 20.8638 26.4398 6.9092 20.8893 25.5277 6.97384 21.1671 
24.6591 6.70209 21.1665 24.0803 6.06928 20.891 23.8487 5.11446 21.1111 
22.8741 5.17318 21.3125 21.8434 5.29411 21.4013 21.045 5.81662 21.8802 
20.4401 6.15931 22.6669 25.732 42.2057 9.03777 25.3752 41.4524 8.46808 
24.6963 41.5259 7.69269 23.7499 41.6682 7.44553 22.802 41.3205 7.72766 
22.6047 40.4426 8.15628 23.0486 39.6336 8.46584 23.6956 39.408 7.8713 
24.3681 39.9146 7.27305 25.6466 40.2354 6.71359 18.8044 8.8268 23.003 
19.2937 9.54557 23.395 20.1969 9.8947 23.2383 21.2818 10.313 23.3254 
22.2784 10.5023 23.4841 23.0901 10.8452 23.9415 23.2753 10.9447 24.988 
23.8798 11.3232 25.7096 24.6814 11.9011 25.9715 24.781 12.4709 26.8044 
6.49341 34.0719 19.4285 6.0759 35.0048 19.5041 5.50653 35.8698 19.6251 
4.80628 36.5367 19.2783 4.02524 37.1685 19.1437 3.06852 37.2173 18.8736 
2.16852 37.3894 18.8603 1.06381 37.3567 19.3333 0.306302 36.8526 18.8855 
0.450711 35.9661 18.6669 21.4156 2.97928 23.6297 20.7144 3.44184 23.1963 
19.9064 3.99 23.0278 19.1766 4.7001 23.2599 18.9561 5.60895 23.5176 
18.573 6.48056 23.6486 18.2204 7.28279 23.2437 18.2463 8.25025 23.5524 
18.4298 9.27298 23.8602 18.661 10.228 24.1004 17.7041 8.60953 40.2562 
16.9953 9.38528 40.2462 16.159 10.0749 40.0723 15.718 10.6362 40.7505 
15.7956 11.496 41.118 15.7676 12.3497 41.6324 15.4665 13.3602 42.2273 
15.158 14.1841 42.5574 15.032 15.0536 42.1497 14.5761 15.6316 41.5375 
18.5008 4.08509 26.2933 18.2869 4.45182 27.1377 18.7759 3.68642 27.8911 
19.3119 3.00601 28.399 19.9426 2.35756 28.8609 20.2828 2.06573 29.8121 
21.1302 2.33101 30.3496 21.3241 3.32554 30.5751 21.7988 4.04255 31.0525 
22.5798 4.06145 31.6978 28.8636 9.83811 24.9429 28.3222 10.3204 24.2716 
27.5158 10.9841 23.9138 26.9692 11.7807 24.1557 27.1056 12.5628 24.9059 
27.8162 12.404 26.0354 27.8696 12.6679 26.9535 27.4217 12.8117 28.1211 
27.1347 12.3964 28.9736 27.5731 11.3223 29.2129 13.8612 16.2513 41.2004 
13.3766 15.8741 40.491 12.9871 15.7403 39.6652 12.8073 15.3244 38.7627 
13.2683 14.6465 38.0599 13.119 13.5779 37.8026 13.2935 12.6141 37.9338 
12.9747 11.7986 38.5047 12.4949 11.5598 39.358 12.2797 10.838 40.0393 
10.2439 10.047 41.0208 9.71265 10.873 40.5268 9.56696 11.7433 39.9983 
9.28664 12.6104 39.6268 9.89852 13.2718 40.0751 10.617 13.2709 40.8061 
11.445 13.5971 41.316 12.0185 14.157 41.9041 11.589 14.8567 41.2258 
10.6916 14.9243 40.7935 45.5904 46.5991 39.8716 45.0198 46.6549 39.1111 
44.4537 46.504 38.3473 44.2283 45.8725 37.5588 44.4487 45.572 36.6733 
45.2421 45.4029 35.8482 44.6433 45.5265 35.0957 44.5022 46.1624 34.418 
44.9322 46.7577 33.8408 45.7952 0.473177 33.5465 23.4808 5.53348 26.4329 
24.1799 5.1842 25.8709 24.7283 4.91035 25.108 25.4516 4.59457 24.515 
26.2772 4.36328 23.9718 27.1399 4.21256 23.5751 28.0641 4.39878 23.5529 
28.1951 4.75702 22.5827 28.0208 5.25135 21.7336 27.9848 6.15984 21.4309 
25.8821 28.3792 4.37074 24.8941 28.085 4.40973 24.5555 27.7764 5.25667 
25.4333 28.0059 5.44092 26.1627 28.8626 5.37701 26.0883 29.8678 5.29132 
25.6196 30.6469 5.08445 24.6424 30.8581 5.12638 24.2502 30.1393 5.54266 
23.8302 29.286 5.93158 11.4677 11.2633 41.9596 11.7463 10.4781 42.6807 
11.3843 9.59481 42.5638 10.5044 9.26547 42.0855 9.77813 9.20735 41.3935 
10.3321 8.65185 40.7577 11.2096 8.32346 41.1101 11.6778 8.40222 42.1023 
12.303 8.66487 42.8456 12.9134 9.23099 43.5201 0.768242 26.8553 14.3562 
0.163723 27.5293 13.9786 46.7194 28.4644 13.9568 46.0778 29.218 13.9974 
45.7375 30.1317 14.2346 45.3839 30.9599 14.6073 46.1596 31.2801 15.2976 
0.0444236 31.7315 15.8876 46.7002 32.7631 15.7755 0.439359 33.5544 15.625 
24.3458 4.44661 32.6733 25.2907 4.05811 33.0344 26.4143 4.2168 33.7174 
27.2887 3.97249 34.2275 28.1811 3.77838 33.9957 28.8925 3.57883 33.3961 
28.9379 4.3318 32.5417 28.6453 5.19811 32.3193 28.7251 5.91479 31.638 
29.685 6.0991 31.4225 18.2324 5.91134 28.1629 17.5601 6.28836 27.5035 
17.8517 7.14524 27.2486 18.4401 7.40736 26.3284 18.8574 8.06413 25.7724 
18.9073 9.08571 25.8419 19.1401 10.0185 26.2146 19.5405 10.9643 26.1859 
19.7957 11.9494 26.2185 20.7626 12.2765 26.1095 23.6958 46.5572 26.1366 
22.7113 0.0359943 26.3495 21.8568 0.46946 26.8148 21.1209 0.872339 26.1802 
20.7736 1.74964 25.935 20.0933 2.42242 25.6926 20.0181 3.27897 25.3524 
19.8738 4.16546 25.0663 19.6721 5.08796 25.4321 19.33 6.0733 25.6612 
16.4946 17.5497 38.214 17.4193 17.1897 38.166 18.299 16.7478 37.4976 
19.2264 16.58 37.8763 20.1227 16.2758 37.9487 20.5863 15.6827 38.5899 
20.6594 14.8056 39.0141 20.7936 13.9027 39.3677 20.3875 13.1483 40.0997 
20.6812 12.652 40.8425 27.9004 5.09573 27.8038 27.1653 4.4589 27.9037 
26.721 3.59322 28.111 26.1013 3.53419 28.9016 25.2409 3.86414 29.18 
24.525 4.22584 28.6501 24.0526 4.67384 27.9173 24.0667 4.60088 26.8653 
24.5796 4.25406 25.9908 24.8672 3.80614 25.0883 46.4874 29.6664 18.7616 
45.6637 30.2463 18.8415 44.9411 30.8962 18.954 44.6222 31.8545 18.8283 
45.1766 32.2678 19.5204 45.9689 32.7305 19.9506 46.0968 33.6011 20.1721 
45.5061 33.8013 20.8869 45.003 32.9828 20.8313 45.5332 32.1188 20.7762 
20.5653 8.58199 39.8576 19.8375 8.19307 40.2591 18.5084 8.10526 40.7176 
17.7338 7.53561 40.6294 16.7091 6.94386 40.407 16.8284 6.36557 39.6601 
16.8738 6.13867 38.7496 17.0194 6.47123 37.7587 16.9552 6.94088 36.8866 
16.0798 7.71444 35.8382 25.5461 28.0157 3.4354 24.4943 28.5335 2.93835 
23.5464 28.9181 2.81099 22.7837 28.3029 3.19023 22.2258 27.3722 3.51054 
21.9281 26.4646 3.6472 22.1042 25.5487 3.45817 21.8511 24.5576 3.31405 
21.6868 23.871 2.55643 21.8465 23.1869 1.97528 23.4221 3.48024 28.8183 
[...]
POINT_DATA 5120
VECTORS mag_moments float
-1.66112 -1.40727 -0.510164 -0.731269 -2.03711 0.561631 -1.68913 -1.24206 -0.777261 
-2.05278 0.507741 0.726846 -1.97831 0.793243 0.676055 -1.11177 1.73848 0.861197 
-1.14903 1.91753 0.0528808 -0.507627 2.10684 -0.550943 0.171898 2.15234 -0.581288 
-1.39399 1.23693 -1.23563 0.246474 1.80756 -1.29305 1.20544 1.67301 -0.86484 
1.05687 1.67492 -1.03812 0.428111 1.83176 1.20887 1.71905 0.0517962 1.42905 
0.508029 0.11357 2.17463 0.966911 -1.51547 1.32983 0.328526 -0.140132 2.20736 
0.536347 0.0507462 2.1702 -0.295856 0.00970572 2.21639 1.61198 -0.238427 1.53123 
1.80856 -1.06935 0.765239 2.08888 -0.377897 -0.7027 2.23249 -0.0836097 0.0949106 
1.64622 1.13018 1.00631 -0.196733 2.16881 0.507522 -2.08386 0.739068 0.333628 
-2.09672 0.52075 -0.576683 -2.09743 -0.175167 -0.755065 -1.8492 -0.867689 -0.909714 
1.16651 -1.90543 0.0926204 1.47231 0.389325 -1.63729 0.992841 1.99401 -0.19544 
0.827283 1.97519 -0.643599 -1.86446 1.18096 -0.359348 -1.84844 -0.104387 1.25394 
-1.18825 -1.55786 1.07756 -0.84979 -1.39708 -1.52513 0.409839 -1.39431 -1.69939 
-0.967654 0.721401 -1.88235 1.88558 1.20183 0.0143406 2.13296 0.340295 0.578525 
2.19946 -0.140674 -0.37758 2.13403 0.226264 -0.628253 0.642069 -1.77996 -1.19143 
-0.117457 -1.36161 -1.76981 -0.709102 -0.691189 -2.00485 -1.29197 -0.378451 -1.78538 
-2.04215 -0.692784 -0.591326 -0.374354 0.172244 2.19777 1.02099 1.85649 0.714848 
1.05899 0.634032 -1.86455 0.720355 -2.11027 0.166848 -0.308106 -1.84935 -1.2186 
0.185431 -1.48744 -1.65926 -0.9001 -0.551541 -1.9712 0.723886 0.968711 -1.88085 
-0.666886 1.05544 -1.85508 -1.50855 0.0881759 -1.64819 -0.550721 -2.16548 -0.08601 
-1.49872 0.609907 -1.54332 -0.507834 0.889312 -1.98777 -2.04393 0.816063 -0.395476 
0.361193 0.986846 -1.97375 0.166452 2.14066 -0.6244 -1.074 1.47079 -1.29743 
0.677711 1.83115 1.08977 -0.209293 2.20794 0.284915 -0.15771 2.1989 -0.374127 
0.687817 1.67179 1.31606 1.34725 -1.66495 -0.642531 1.33988 -1.61555 0.771176 
1.56143 -0.805193 1.38333 1.72801 -0.969704 1.03617 0.983379 -1.23834 1.58097 
0.148635 -1.47759 1.67171 0.958221 1.47894 1.37642 1.54254 1.53224 0.522292 
2.08092 0.464012 -0.674138 1.9847 0.910777 0.481079 -0.313038 1.5024 -1.62629 
0.0371766 2.06215 -0.863798 0.238013 2.10404 -0.718586 -1.68699 1.44783 0.240527 
-0.0997092 2.21667 0.276503 0.021035 2.12157 0.70605 1.98166 0.48243 0.916673 
0.943393 -0.776246 1.87282 1.36908 -1.71846 -0.41534 -0.203737 -2.15682 0.553738 
-1.61919 -1.53774 -0.116505 -1.33943 -1.74858 -0.385221 -1.71159 0.910107 1.11452 
0.549615 2.14255 -0.327697 -0.356216 2.1927 0.255314 -0.0902475 1.95264 -1.08583 
1.41064 1.64998 -0.536365 1.11087 1.69046 0.953043 -1.38232 0.150544 1.75115 
0.329443 1.53045 1.59662 -0.596688 1.8947 -1.02669 -0.232051 2.19243 -0.373347 
0.13742 2.07498 -0.821922 0.0243109 2.12358 0.699869 0.533108 2.04879 0.719892 
-1.04088 1.82569 0.763837 0.714125 1.07583 1.82554 -0.895968 1.85543 0.868689 
-0.917484 1.56826 1.30337 0.932971 -0.410925 1.99015 -0.464433 1.39616 -1.68376 
1.17098 0.175761 -1.89681 -0.136196 -0.682975 -2.12485 1.04034 1.49349 -1.29892 
1.36137 0.590956 -1.67256 1.20761 0.359337 -1.84731 2.10456 0.710321 -0.257405 
1.7628 1.28569 0.48942 1.43343 1.23449 1.19219 -0.117521 1.64491 -1.51012 
0.332116 -0.439593 2.16713 -0.806631 0.0689562 2.08437 -1.54261 0.0705327 1.61722 
-1.77308 -1.14085 -0.744749 -0.834435 -1.24137 -1.66214 1.98807 -0.371793 -0.953587 
1.13175 1.03941 1.62443 0.472873 -0.985931 1.95047 0.715212 -0.948298 1.89452 
-0.444827 0.518228 2.12922 0.967865 0.409971 -1.97362 1.13647 1.85112 -0.530836 
2.01198 0.464256 -0.858131 1.41369 0.653358 1.60455 1.95017 1.06831 0.235703 
1.44779 1.67024 -0.33794 1.29164 1.50266 1.03619 -0.425445 1.23745 1.81321 
0.110624 1.66705 1.48617 0.291368 -0.873082 2.03785 1.34198 -1.26259 -1.26686 
0.928153 -0.853454 1.84666 1.81092 0.0905618 1.30858 1.82708 0.698808 1.08326 
0.0492078 1.91253 1.1575 0.147286 1.75586 1.37668 0.631155 2.11725 -0.344794 
-0.104797 2.15797 0.576342 -0.100761 2.23369 0.022078 -2.01658 0.830866 0.493027 
0.889725 -1.17762 1.67976 0.641444 -0.193531 2.13333 -0.0892621 -1.67893 1.47419 
-0.3736 -0.220106 2.19362 1.60035 -0.00717294 1.56167 0.858378 2.0016 0.506742 
0.476081 2.01884 0.835233 0.511026 2.12167 -0.487223 -1.15672 1.7049 -0.869091 
-0.585732 0.535987 -2.09037 -0.0138812 -2.23555 0.0458836 1.4445 -0.306976 -1.67904 
-0.672134 0.00383709 -2.13266 -1.16625 -0.939789 -1.66032 -1.56361 0.384922 -1.55144 
-1.44747 -1.09317 -1.3076 -1.97268 -0.846302 -0.626358 -1.1575 -1.68131 -0.912898 
-0.779905 -1.95725 -0.748935 -2.10887 -0.575638 0.470433 1.16078 -0.568044 1.8248 
1.61201 -1.00334 1.18099 0.809087 -0.00173969 2.08456 -1.63843 0.726926 1.33683 
-1.56451 1.21621 1.03592 -0.324309 1.15069 1.88964 -1.21933 1.84277 0.342663 
-1.55912 0.980464 1.268 -2.19867 -0.190463 -0.359939 -1.94609 -0.680112 -0.866136 
-1.87346 0.835142 -0.89032 -2.14436 0.469501 0.425802 -2.03796 -0.893167 0.221302 
-1.75886 -1.32053 -0.40323 -1.14372 -1.806 0.655958 -1.47823 -1.67664 -0.060927 
-1.7674 1.36332 -0.132823 -1.87683 0.57252 1.07225 -1.23437 1.53782 1.05425 
-1.86619 -0.304615 1.19354 -0.338362 -1.95122 -1.03838 -1.33309 -0.958468 -1.51796 
-1.57364 0.720358 -1.41589 -1.68947 -1.44209 -0.257005 -1.44352 -0.874772 1.46663 
0.838168 -1.7709 1.07769 1.34746 -1.72593 -0.453312 1.27073 0.569284 -1.74962 
1.40338 1.06662 -1.37581 1.9247 -0.048448 -1.13719 0.988252 1.5222 1.30624 
1.81157 1.29957 -0.171238 2.19185 0.442401 0.00942514 2.07549 -0.635317 0.537333 
2.21072 0.238386 -0.236419 0.568739 0.700096 2.04607 1.08453 -0.517269 1.8858 
1.22054 -0.185827 1.86434 1.63825 1.18075 0.960193 -1.54904 0.451144 1.54821 
-1.62643 0.956475 1.19995 -1.07899 1.93559 -0.298795 -1.29629 1.80712 0.232269 
-1.7208 1.41932 0.156192 -2.06055 0.289742 -0.818659 -2.21948 0.255675 -0.0923403 
-2.17412 -0.522609 -0.00840676 -1.94709 -0.327085 1.04968 -1.10641 -1.78263 -0.773366 
0.732795 -2.11185 0.0555845 -1.95457 0.787619 -0.747881 -1.64009 1.27483 -0.827593 
-2.22682 0.0977631 -0.178129 -0.335802 2.20587 -0.146133 -0.533283 1.72813 1.31498 
-1.03165 1.87869 -0.637371 -0.115222 2.11534 0.715591 0.256453 2.20862 0.237125 
0.518517 2.09337 0.590705 0.396459 2.19912 0.0817531 -1.73179 1.40169 0.19012 
-1.32605 1.79011 -0.192562 -1.49185 1.23941 1.11276 0.495867 1.94302 0.989331 
0.755081 1.07131 1.81167 -1.03775 1.72027 0.981706 -0.355022 2.10219 0.674341 
-0.701674 2.08211 0.415273 -0.503391 1.68659 -1.37913 -1.75998 0.985933 -0.96457 
-1.26725 1.81774 0.299828 0.568853 -0.612483 2.07395 1.14128 -1.55512 1.13097 
1.011 -0.846814 1.80577 1.07007 -1.23616 1.52541 1.02028 -0.179865 1.98159 
1.60661 1.55259 0.0908944 0.213133 1.97911 1.01868 1.79618 -0.352639 1.28428 
1.49821 -0.626601 1.53712 -0.237825 1.44809 -1.68715 -1.93366 0.680612 -0.893161 
-1.9052 1.15177 -0.208926 -1.52804 1.27104 1.02448 1.51887 0.433373 1.58279 
1.00804 0.00779159 1.99595 -0.765601 1.26319 1.67875 -0.184903 0.23714 2.21576 
0.232027 -1.83223 1.2606 1.61514 -1.16414 1.0179 -1.85685 0.22383 -1.22557 
-0.794262 -0.79547 -1.93297 -0.979152 -0.98598 -1.75189 0.0726532 -1.67136 -1.48367 
0.758737 -1.49794 -1.47664 -0.0138829 -2.07462 -0.834119 0.925643 -1.80735 0.936302 
-0.850338 -1.17175 1.70409 -0.698353 -1.23438 1.72876 -0.0405644 -1.6901 1.46353 
-1.62019 1.48605 0.408227 -0.0360839 2.0839 -0.809971 -0.93739 1.40286 -1.46741 
0.264178 2.21248 0.187492 1.37318 0.625243 1.65029 1.9359 0.188195 1.10312 
0.956418 0.807741 1.85279 1.1536 1.57872 -1.08484 -1.51644 0.0601169 -1.64219 
-1.94247 0.900561 -0.644822 -1.20011 -0.900911 -1.65774 -1.5164 -0.199473 -1.63118 
-0.914431 -1.00035 -1.77852 -0.0516099 -1.46357 -1.68977 2.07596 -0.480666 -0.677763 
-0.679992 -0.511713 -2.06779 -1.04537 0.859097 -1.78021 0.400212 1.19168 -1.84925 
0.796936 1.83177 -1.00475 1.8886 0.126402 -1.19047 0.923001 -0.634789 -1.93523 
1.25587 -1.3997 -1.20981 1.42218 -0.481817 -1.65689 1.72388 -0.548229 -1.31441 
1.6125 -0.0220894 -1.54899 2.12391 -0.364192 -0.596962 1.56932 1.58979 -0.0990115 
-0.575352 0.556332 -2.08793 -0.474237 1.54622 -1.54412 -0.494285 2.12021 -0.510275 
-1.78998 -1.33617 0.103084 -2.03266 -0.371382 0.854609 1.20616 0.00053609 1.88287 
1.55 1.6069 -0.124018 1.53079 1.58492 -0.380443 -1.15825 1.82496 0.572694 
-1.68078 1.27397 -0.742944 -1.39589 -0.953904 1.4634 -0.90085 -2.01656 -0.349215 
-1.53142 -0.93876 1.33172 -0.305084 -1.36718 1.74291 0.269039 -2.20972 0.211605 
-1.79163 -1.01156 -0.875671 -1.97589 -0.510683 -0.913811 0.123277 -0.428889 -2.19109 
1.75569 -1.35956 -0.262916 1.57133 0.00409897 1.59088 1.51679 -0.462735 1.57646 
1.33193 1.43165 1.08459 1.65551 0.375407 1.45545 -1.87209 0.50219 -1.11494 
-1.72374 1.33458 -0.497629 -1.00546 1.90834 0.589303 -1.74856 1.37931 0.200156 
-0.87948 2.04952 0.16119 0.894372 1.56382 1.32461 1.91289 1.06507 0.454401 
-0.041336 2.23109 0.143233 0.709837 2.11886 -0.0809819 1.41515 1.71776 0.21601 
0.695654 -1.96809 0.801669 1.1382 0.263205 1.90662 1.90173 -0.0906464 1.17269 
1.61323 -1.54434 -0.111873 1.68094 0.754898 -1.26672 1.48496 0.296345 -1.64532 
-0.531846 1.79604 -1.22121 -0.236285 1.92877 -1.10635 0.306112 0.792736 -2.0683 
2.01505 0.455364 0.855686 -0.459289 -0.354692 -2.15946 -0.887151 2.04147 -0.212953 
1.157 1.30718 -1.39737 0.201425 1.66702 -1.47664 1.01923 1.9901 0.0257994 
0.0988875 1.94598 1.09699 0.613845 2.01997 0.73683 0.833972 2.06516 -0.198961 
1.38501 1.34671 -1.1261 2.05018 -0.779374 0.435126 -2.10418 0.342811 0.674462 
-1.94777 0.922952 0.59526 -2.07731 0.7839 -0.265119 -1.06465 1.68728 -1.00976 
-1.64406 1.25531 -0.849274 0.0526774 2.21981 -0.263912 -0.407408 1.66215 -1.43919 
0.0672492 1.944 1.10287 -0.74706 1.42946 1.54873 -0.211616 2.22603 -0.00521433 
1.2975 -1.71322 -0.617567 1.75884 0.159266 -1.37153 2.21545 0.0974596 -0.286888 
2.0778 -0.731483 0.384291 1.89312 -1.0998 0.454476 0.506227 -0.999782 1.93499 
0.389289 -2.16952 -0.376363 -0.285322 -2.1099 0.683313 0.273522 -1.25974 1.82708 
-0.205097 -1.53109 1.6167 -1.32601 -1.79282 0.165855 -1.82 -0.838932 0.991863 
-1.43474 -1.69557 0.25795 -0.929887 -0.239465 2.0194 -1.87735 -0.0482966 -1.21376 
-0.918966 1.44783 -1.43502 -0.871262 0.97437 -1.81425 0.100664 -0.272658 -2.2171 
0.637386 -1.0802 -1.85119 -0.081803 -1.54162 -1.61763 -1.59327 1.41647 -0.674625 
-1.50784 1.64197 -0.174223 -1.6904 1.007 -1.06231 1.06149 1.96727 -0.0555487 
1.91291 0.140434 1.14938 -0.269649 1.84753 1.23041 0.788341 1.57473 1.37795 
-1.76128 -0.52808 1.27241 0.442925 -2.16217 0.358917 1.67639 -1.41106 0.445647 
-1.46767 -1.56499 0.629889 -1.59994 -1.48819 0.474876 -1.98596 -0.831829 0.603353 
-1.94488 -0.8899 -0.65232 0.367826 -1.76606 -1.32127 1.35494 -1.02703 -1.45236 
0.227713 -0.247863 -2.21059 0.998785 0.537608 -1.92702 0.0277886 1.61559 -1.54567 
-1.48213 1.29206 -1.06483 -2.17414 -0.519406 -0.057723 -0.513101 1.97759 -0.908771 
-1.46914 -1.49827 0.772548 -1.88946 -0.0928337 1.1922 -0.754534 -2.10416 -0.0563324 
-0.407365 -2.17807 0.300123 0.393873 -1.60898 -1.50201 1.28831 -1.66203 -0.760207 
0.209608 -0.841728 -2.06096 0.937272 -1.77442 -0.986384 -0.166734 0.833675 -2.06814 
0.0548449 1.27957 -1.83294 -1.63297 0.602404 -1.40376 -1.36567 1.03227 -1.43853 
-1.55329 0.473748 -1.53715 0.235256 1.99685 0.978395 1.20228 1.80407 0.547573 
2.11473 0.398169 -0.60775 1.63542 -1.06712 -1.08934 1.89742 -1.18247 -0.0395122 
-0.286658 -1.71371 -1.40749 -0.874135 -1.65104 -1.22881 -1.85886 -1.12819 -0.521361 
-1.98632 -0.046216 -1.02586 -2.13774 0.191557 0.6272 -2.02513 0.809674 0.493237 
-2.09002 -0.156999 -0.779211 -1.99419 1.00811 -0.0832153 -1.97363 0.195137 -1.03282 
-0.61576 0.836192 -1.98031 -1.70104 -0.491015 1.36579 -0.325405 2.09816 0.701315 
-0.592326 2.13048 -0.331989 -1.61011 1.53774 0.207102 -1.35739 -0.823732 -1.57447 
-0.446493 -1.94664 1.00559 -1.34201 -1.22036 -1.30756 0.546552 -1.56758 -1.49799 
0.518519 -1.01721 -1.92261 1.77438 0.167176 -1.35041 -2.21269 -0.274023 0.170032 
-1.7567 -1.29691 0.481686 -1.57971 -1.48109 -0.557571 -2.22687 0.193288 0.0606063 
-0.709718 1.09711 -1.81457 -1.89764 1.1088 -0.411724 -1.13963 1.86426 0.47516 
-1.34051 1.7208 -0.491812 -0.757505 1.89783 -0.907979 -0.0420557 2.2335 -0.0986202 
-1.9989 -0.760095 -0.653177 -1.92467 0.452391 -1.0445 -1.98515 0.797886 0.650059 
-1.71126 0.768816 1.21677 -0.47682 0.286846 2.16572 -0.864601 1.72949 1.12309 
0.451681 1.87057 -1.13884 0.882912 0.534648 -1.98359 -0.335517 1.86092 -1.19349 
0.496525 2.15819 -0.309351 -0.88279 1.96194 0.609493 -1.71231 1.26346 0.686777 
-1.26566 1.61296 -0.892448 -1.54382 1.21631 -1.06641 -0.440709 1.98661 -0.926905 
-0.456358 2.06427 0.728371 -1.52865 1.53842 -0.544522 -1.42933 1.58756 0.660798 
-1.17185 -0.278116 1.88399 -1.6085 -1.3844 0.704384 1.41122 1.28054 -1.1699 
0.980574 1.69658 -1.07708 0.323172 2.12189 -0.627027 -0.331152 2.20066 -0.217774 
0.679253 2.06208 -0.535215 -1.464 1.34821 -1.01933 -0.202114 1.44733 -1.69245 
-2.12403 0.284162 -0.638557 -1.98263 0.913391 -0.48467 -1.97819 0.990983 -0.323629 
-1.1118 -1.64062 1.0355 -1.64199 -0.985746 1.1542 -2.16271 -0.478255 -0.306521 
0.16993 -1.76138 -1.367 -0.686468 0.739348 -1.99553 1.35647 1.61151 -0.750349 
-0.348434 1.15192 1.88459 1.23788 1.78189 0.540876 0.662917 -1.43076 1.58539 
-1.42666 -1.60686 0.618576 -0.601749 -1.61534 -1.42429 -0.0664225 -2.2291 0.163455 
-0.095202 -1.41287 1.73053 -1.41878 -0.125391 1.72376 0.0865599 0.214985 2.22403 
1.10685 0.248283 1.92698 1.081 0.153786 1.95136 2.01921 -0.952363 0.125663 
-0.0986257 0.604043 -2.15068 -0.0458398 0.0386615 -2.23526 0.455453 -0.233622 -2.17669 
1.37216 0.295478 -1.74065 2.12623 -0.0667242 -0.688992 1.71858 -0.445039 1.35956 
1.2113 -1.87639 -0.109259 -0.516132 -1.80532 -1.21426 1.30168 -0.632514 -1.70457 
0.00776222 0.918913 -2.03851 -0.731271 -0.416979 -2.07156 0.0762803 -1.22988 -1.8659 
-1.80869 1.25956 0.377017 -2.10556 -0.0392915 0.75172 -2.0852 0.804838 -0.0646401 
-2.01916 -0.862497 -0.423179 -2.02013 -0.678397 0.677379 -2.15857 -0.569937 -0.125478 
0.922131 -1.86805 0.812451 0.256169 -1.02972 1.96826 1.84424 -0.601666 1.11211 
1.68867 -1.43956 -0.275785 1.00852 -1.38461 1.43727 0.984098 -1.95399 0.462019 
1.74437 0.612419 1.25782 2.06034 -0.568919 0.65675 1.70699 1.43353 -0.17659 
0.46124 1.93343 1.02427 0.802224 1.96171 -0.71282 0.926163 1.83085 0.888931 
-1.80168 1.28121 0.335334 -1.51407 1.57497 0.476502 -0.914044 -1.99064 0.449296 
-0.200499 -2.22644 -0.0524502 0.525585 -1.92222 -1.01431 -0.481622 -0.987628 -1.94747 
-0.43559 -1.35416 -1.72526 -0.744935 -0.988842 -1.86206 1.2052 -0.0699425 -1.88218 
0.0478445 1.4482 -1.70306 -0.906476 1.3573 -1.52841 1.63167 1.47515 -0.401952 
0.960504 -0.0707382 -2.01803 0.520091 1.37828 -1.68222 1.01274 1.10186 -1.66141 
0.854159 1.69364 -1.18405 -1.30015 1.75863 -0.465663 -1.06842 1.84453 -0.675417 
-1.45097 1.69035 -0.193324 0.638593 1.59036 1.4363 0.838677 1.18138 1.70322 
0.797846 0.822663 1.92007 0.864329 1.52457 1.38875 0.363361 1.55422 1.566 
-0.452391 -0.691 2.07795 -0.970627 0.707834 1.88596 -1.3666 1.02673 1.44161 
-0.746155 0.152303 2.10239 -0.507164 -0.113647 2.17483 -1.20699 -0.278519 1.86161 
-1.80095 -0.916461 0.957436 -0.329921 -2.096 0.705654 -1.33384 0.214875 1.78177 
1.01778 1.97113 -0.28068 1.84787 0.997283 -0.768639 0.940344 1.93635 0.605236 
1.69062 1.44619 -0.224298 1.74609 -1.08518 0.879507 0.697251 -1.47383 -1.53025 
0.618247 -1.18975 -1.78949 -0.651579 -1.99375 0.774856 0.0843718 -2.21994 0.254495 
-1.42419 -1.21031 1.22753 -1.82561 -1.21767 -0.429473 -0.515327 -2.03181 0.778588 
0.500559 -1.75497 1.29211 2.0336 0.552259 0.747974 0.846158 -1.72591 -1.14248 
-1.03774 -0.725769 -1.84292 -1.88132 0.454196 -1.11997 -1.50115 0.0127269 -1.65723 
0.179009 -1.24454 -1.84907 -0.317945 -1.8277 1.24837 -0.745252 -1.37787 1.59564 
0.193371 -1.36325 1.76186 0.776623 0.418256 2.05473 0.808211 1.6044 1.33142 
1.97869 0.588333 0.859441 1.45593 1.40335 0.954403 0.16284 1.98715 1.01227 
0.123867 2.04802 -0.888982 0.394537 2.08859 -0.694352 -1.97572 -1.04646 -0.0383975 
-0.865546 -2.06071 -0.0654563 -1.89679 -0.9178 0.748216 -2.20789 -0.291683 0.200318 
-0.728529 -1.85883 1.00697 -0.250031 -0.978373 1.99506 -1.47521 -0.842533 1.45392 
-1.76403 -0.222352 1.35601 -1.88365 1.09954 0.492818 0.765307 1.96025 0.756126 
-1.52172 -0.606487 -1.52202 -1.38122 -1.00192 -1.44513 -1.89807 0.0491724 -1.18106 
-2.03716 0.365658 0.846329 -1.80836 -1.28425 0.283814 -1.36733 -0.535213 1.6864 
-0.85181 -0.311631 2.04385 1.57256 1.40024 0.752592 0.102497 2.23154 0.0986138 
1.15492 1.26193 1.44003 -0.616561 1.31196 1.70253 0.613665 -0.478485 2.0963 
0.0273789 -0.0997636 2.23367 -0.396425 -1.77994 1.29409 -0.740934 0.923219 1.89702 
-1.48137 -0.472315 1.60701 -1.93853 -0.285692 -1.07725 -1.46685 1.39369 -0.951829 
-1.06267 -1.40004 -1.38225 -0.288079 -1.73365 -1.38256 -0.988844 1.9461 -0.484632 
1.66912 1.4852 -0.090577 0.875246 1.07581 1.75402 -1.21917 0.822983 1.68414 
-0.586088 0.834176 1.99014 -0.163333 0.671272 2.12667 -1.03003 -1.31447 1.48701 
1.33154 -1.23543 1.30411 0.437234 -1.83021 1.20796 0.801292 -1.77594 -1.09726 
0.139225 -2.13718 0.642725 0.513099 -1.8029 1.21913 1.00061 -1.76062 0.948157 
1.52433 -1.63542 0.0427424 0.115094 -1.40248 -1.73776 1.15815 -1.49711 -1.19053 
1.13558 -1.82544 -0.614996 1.56369 -1.5916 0.14728 0.978942 -0.799583 -1.84454 
1.34273 0.479635 -1.72251 0.375247 2.15422 -0.467467 1.35705 1.62381 0.722272 
0.789839 1.50338 1.45465 1.20149 1.57136 1.04271 -0.114225 0.327701 2.20897 
-0.348799 1.66898 1.44667 -0.154774 -0.765068 2.0954 -2.23177 0.122317 0.0652896 
-1.9129 0.0757181 1.15546 -2.03512 -0.909201 0.177897 1.48254 -1.66893 -0.129408 
1.33922 -1.7328 -0.451551 -1.23183 -1.70865 0.7504 -2.10247 -0.724058 0.235269 
-2.01737 -0.960746 -0.0848636 -1.73039 -1.24484 0.675372 -0.999506 1.02804 1.71585 
1.43336 1.66967 0.397088 0.772229 1.12564 -1.77104 0.518673 1.30192 1.74241 
-1.0449 1.56256 -1.21103 -1.705 1.36369 -0.483037 -1.97055 0.584361 -0.880591 
-2.20945 -0.288448 0.187469 -1.19631 -1.78418 0.620913 -1.17037 -1.71984 0.819992 
-1.841 -0.25538 1.24319 -2.05456 0.303398 -0.8287 -1.43924 1.55758 -0.708887 
0.737961 1.69676 -1.25555 -1.01149 0.88128 -1.78892 -0.957321 0.15908 -2.01451 
-0.688186 -1.13394 -1.80016 -0.58843 -2.1317 -0.33105 0.553234 -2.15854 -0.186139 
1.50293 -0.872648 1.40702 0.467407 1.00415 1.94248 -1.53076 1.51157 0.609859 
-0.308076 1.94047 -1.06755 -0.656863 1.05913 -1.85655 0.169449 2.18314 0.452989 
0.984651 1.98005 -0.331447 2.09429 -0.172397 0.764349 1.99558 0.702099 0.724371 
2.13202 -0.544041 -0.398114 1.81054 -0.513544 1.20757 1.32176 -0.554973 1.71609 
1.87982 0.207523 1.19299 1.92425 -0.756273 -0.85166 2.02591 0.937226 0.131453 
0.936281 -1.9659 -0.508556 0.920342 -1.73912 -1.06227 0.100018 -0.959652 -2.01719 
-0.767843 -0.852417 -1.91932 0.342345 -0.680165 -2.10242 0.503958 -0.42656 -2.13637 
0.285331 -0.153644 -2.21246 1.80106 0.594957 -1.18415 0.985415 1.4413 -1.397 
1.6963 0.311744 -1.42316 1.5541 1.60607 0.0728479 0.79143 2.08169 0.200482 
0.558819 1.41799 -1.63616 -1.01574 0.492738 -1.93015 -1.12983 0.963935 -1.67162 
-1.74803 -0.492272 -1.30463 -2.063 -0.301913 -0.808007 -1.02375 -1.6297 -1.13843 
-0.131471 1.47184 -1.67822 0.545139 1.72557 -1.31348 -1.13715 1.92533 0.00301753 
-0.7826 1.46063 -1.50137 -0.479518 1.91984 -1.04128 -0.372844 1.81776 -1.2477 
-0.301121 1.23676 -1.83841 -0.621533 2.08169 -0.529395 -0.799291 1.929 0.800049 
-1.92281 1.14126 0.0174296 -0.386239 2.12054 0.595102 1.0886 1.9324 0.284257 
1.40546 0.850887 1.5168 0.306494 -2.00396 0.943501 -0.85994 -1.05197 1.77591 
-2.22738 -0.165467 0.106741 0.320104 1.28639 -1.80076 0.825227 -1.53068 -1.40571 
1.01595 -1.39668 -1.42026 2.18205 -0.00793585 -0.488454 1.90604 0.503311 1.05531 
1.1868 1.86327 0.346035 0.436304 -1.58048 -1.52043 0.671752 -1.78057 -1.17402 
0.964428 -0.81514 -1.84538 0.261417 0.942113 -2.01099 1.58937 -0.564616 -1.46803 
-1.71606 -0.382873 -1.3815 -1.44813 -0.747219 -1.5312 0.22959 -1.43676 -1.69795 