# vtk DataFile Version 4.2
vtk output
ASCII
DATASET UNSTRUCTURED_GRID
POINTS 5120 float
18.988 10.4643 41.2161 18.095 9.84514 41.2787 17.2264 9.52465 41.6897 
16.3706 9.29105 41.9774 15.4825 9.48166 42.5256 15.2321 9.9483 43.3971 
15.5564 10.759 44.0249 14.9982 11.4478 44.3643 14.8868 12.4853 43.9401 
14.8926 13.2048 44.6251 45.3263 35.4152 13.5715 46.3064 35.9747 13.73 
0.301325 36.1803 13.0346 1.06449 36.9043 12.7073 1.89754 37.4873 13.2722 
2.42656 38.1296 13.9359 2.4156 39.1262 13.9985 2.7791 38.8224 14.7731 
3.19946 38.2619 15.4508 3.09101 38.3609 16.4133 24.5865 5.58908 33.2762 
25.3814 5.58187 33.8423 25.6285 4.87771 34.3402 26.3874 4.31247 34.18 
27.3922 4.73477 33.8151 27.4756 5.6505 33.685 27.2335 6.39944 34.2643 
26.2464 6.88975 34.5055 25.3033 6.65696 34.6564 24.7744 6.64991 33.7559 
27.6831 41.7678 9.36609 28.0741 42.4659 8.81133 27.6357 42.8915 8.00328 
26.7408 42.9219 7.60919 26.0425 42.8855 6.9842 25.1613 42.4281 6.94144 
24.7351 41.5983 6.88637 24.7716 41.0309 7.58171 25.4944 40.8068 8.19926 
26.3196 40.6965 8.83358 15.909 7.61001 44.8579 16.9184 7.44679 44.6132 
17.4142 7.24306 43.8593 17.6701 7.06099 42.938 18.5972 6.69368 42.5507 
19.147 6.32384 41.8212 19.3318 5.74867 40.9631 18.8328 5.06912 40.4006 
17.9017 5.46515 40.1664 17.3623 5.98189 40.8181 6.89671 34.853 16.0017 
7.55257 34.1366 16.0405 7.91935 33.1315 15.9227 7.60151 32.3675 15.4425 
6.71038 32.4528 14.9174 6.67317 32.2389 13.9595 6.60147 31.8194 12.9877 
6.3822 31.3963 12.1006 5.4228 31.1834 11.7632 4.72823 30.5478 11.4599 
24.2595 1.5363 27.3027 23.889 2.09924 26.5598 23.3417 3.01139 26.5326 
22.4254 3.586 26.0625 21.9088 4.45335 25.6006 21.6933 5.31238 25.1114 
21.5739 6.08115 24.4524 21.8934 6.98548 24.3735 22.3461 7.93297 24.7023 
22.5893 8.83308 24.8544 38.8905 31.0762 44.7413 39.1056 30.0941 44.7622 
39.8124 29.4893 44.519 40.7377 29.4113 44.3147 41.4672 29.6557 44.9128 
41.6131 29.2416 45.7635 41.6458 29.1613 0.102761 42.231 29.9073 0.903193 
42.875 30.4906 1.24142 42.6114 31.4468 1.37833 23.136 3.18265 25.3298 
23.1924 3.55806 24.4739 22.9866 4.47013 23.9901 22.677 5.46189 23.6617 
22.6051 6.41919 23.9359 22.9054 6.80437 24.7359 23.536 7.33558 25.3141 
24.3579 7.50362 25.9233 24.8324 6.73358 26.4388 25.2646 5.91072 26.5898 
4.86048 32.1525 11.8916 4.15342 31.5229 11.6348 3.32725 31.1111 11.203 
2.80458 31.8647 11.7874 2.67221 32.8448 11.6094 2.62782 33.7226 11.1356 
2.98902 34.4807 11.6827 3.44859 35.4568 12.027 4.0441 36.1415 12.3349 
4.43085 36.7608 12.9544 3.66892 45.6739 33.3075 3.61706 46.3909 32.6412 
3.50915 0.652238 32.6349 3.40404 1.61056 32.6575 3.28006 2.40203 33.1635 
3.55109 3.30558 32.8847 3.81463 4.18524 32.9171 4.00453 5.00496 33.5407 
3.90289 5.80755 34.1228 3.77807 6.53892 34.7438 24.5507 3.13421 28.6795 
25.1172 3.33467 27.8823 25.6466 3.51042 27.0766 26.0901 3.51308 26.1588 
26.1083 3.5063 25.1589 26.9322 3.61635 24.5631 27.7488 4.14436 24.4238 
28.6767 4.3374 24.8185 29.2595 5.08621 24.6845 29.4587 6.11936 24.632 
2.64931 37.6077 14.879 2.23947 37.4357 15.7775 1.36772 37.7084 16.2262 
0.378856 37.2912 16.328 46.6723 36.8672 15.6075 46.0983 36.6098 14.6153 
0.241938 36.296 14.3764 1.15018 36.4627 14.6964 1.86411 36.676 15.2383 
2.46014 36.1898 15.8797 46.6891 2.70186 35.7072 0.863129 3.05113 35.7836 
1.72623 3.45027 35.6532 2.58219 3.85102 35.6325 3.43364 3.82258 35.2365 
4.34373 3.94516 35.727 4.93543 4.46298 36.2888 5.16357 4.81801 37.2091 
4.81316 5.02458 38.1893 4.3906 5.55023 38.9639 0.550923 33.3176 17.0366 
1.22113 32.9252 17.6776 1.71851 33.7062 18.4909 1.87558 34.215 19.2848 
1.78184 35.0532 19.8094 2.12741 36.0215 20.0709 2.55105 36.98 19.9184 
3.10559 37.818 19.8621 3.22827 38.9138 19.5778 2.32591 39.2428 19.0516 
40.9682 30.6603 44.6842 40.9594 30.3116 45.6105 40.9274 30.0107 46.4869 
41.3047 30.0014 0.612446 41.7258 30.6619 1.40652 41.7882 31.3066 2.15457 
41.9719 32.2439 2.50174 42.2569 33.2011 2.27635 41.9233 33.8706 1.69507 
41.2125 33.7345 0.972098 28.7304 9.44337 26.7931 29.0858 8.73689 26.232 
29.1144 8.1844 25.4351 28.5142 7.84612 24.637 27.5229 7.82738 24.3862 
26.8638 7.76387 23.6935 26.1035 7.27686 23.1679 25.3817 6.76953 22.7935 
24.6787 6.39359 22.3188 23.8291 5.94969 22.5996 4.50447 36.8153 13.889 
4.74989 36.794 14.7939 5.07912 37.2206 15.6049 5.34385 37.8986 16.1691 
5.10723 38.8838 16.455 4.34352 39.3158 16.9108 3.67056 39.8064 17.4326 
2.93815 40.3179 17.6985 1.97803 40.2887 17.34 1.21444 40.2736 16.7045 
27.181 7.32753 20.3594 26.6328 8.21359 20.4878 25.748 8.62837 20.4576 
24.8872 8.32731 20.5 24.2353 7.59679 20.6267 23.8698 6.79182 20.8125 
22.8971 6.53539 21.3159 22.0344 6.19544 21.4947 21.2647 5.85969 20.9826 
20.65 5.24662 20.5541 25.6907 41.1655 7.17292 25.809 41.1107 6.25225 
24.8042 40.9889 5.88164 24.6623 40.2849 6.61523 24.4574 39.9942 7.54902 
24.997 39.6817 8.33894 26.1098 39.6711 8.16274 26.4734 40.4969 7.81923 
26.9664 41.0638 7.19331 27.219 41.1495 6.22557 19.1677 9.99515 22.7196 
19.9474 10.5421 22.728 20.8762 10.7382 22.7301 21.5652 11.1058 23.4455 
22.2802 11.329 24.0294 22.8793 11.5719 24.7635 23.4696 11.8622 25.579 
23.9076 11.9789 26.3921 24.9461 12.1093 26.2748 25.0393 12.5348 27.1458 
7.71918 35.295 18.3992 7.15355 36.1186 18.5043 6.13844 36.2608 18.3978 
5.30774 36.4365 17.9946 4.81402 37.3517 17.6903 4.1452 38.0784 18.0407 
3.32445 38.5006 18.5246 2.45661 38.2676 18.992 1.54802 37.8038 18.7977 
0.983197 36.9155 18.4273 20.1975 3.73689 23.7775 19.4666 4.45496 23.7073 
19.4215 5.38647 23.7682 18.7355 5.94851 24.1385 18.5992 6.85183 24.6329 
18.639 7.75028 24.3453 19.0275 8.48375 23.9818 19.1209 9.54904 23.9028 
19.6402 10.3691 23.6115 19.8497 11.4467 23.6639 16.585 8.91365 39.9795 
15.6781 9.37085 40.0202 14.7748 9.91304 40.9746 15.0842 10.8507 41.0399 
15.5856 11.2639 41.7498 15.9214 11.7092 42.5447 15.622 12.608 42.8479 
14.8797 13.2706 42.852 14.4224 13.992 42.3091 13.764 14.5021 41.7906 
18.7667 5.27234 26.8107 18.0897 4.85657 27.3982 18.2814 4.09548 27.9623 
18.9337 3.25854 28.0239 19.5361 2.49055 28.1922 20.2583 1.90785 28.6369 
20.6187 2.28893 29.4258 21.3256 2.77353 29.9843 21.5818 3.8045 30.1124 
22.5271 4.10723 30.111 29.2655 10.0866 24.487 28.4501 10.4782 24.1871 
27.8399 11.3096 24.1043 27.8663 12.2544 24.564 27.988 12.2476 25.529 
27.8754 12.2504 26.4945 27.9691 12.5538 27.4101 27.1447 12.3335 28.1234 
26.7968 11.5235 28.5352 27.4409 10.8667 29.0398 13.8778 15.6006 42.1627 
13.2802 15.487 41.3836 12.61 15.3389 40.6082 12.5765 15.4183 39.5933 
12.7384 15.0576 38.7082 12.4565 14.1451 38.1117 12.6643 13.1318 38.1879 
12.775 12.2983 38.7119 12.9708 11.6893 39.5914 12.4246 11.2724 40.3952 
8.46924 12.2804 39.6082 9.18289 12.0019 40.1715 9.54803 11.9283 41.0752 
9.90861 12.5803 41.7254 10.6426 13.0185 41.296 11.4536 13.5434 41.2571 
12.0367 12.9957 41.7836 12.723 12.1866 41.8132 12.7153 12.5504 42.7326 
12.2132 13.3999 42.8119 44.2932 0.969922 38.6005 44.9089 0.206995 38.4612 
45.252 46.1957 37.856 44.6251 45.9765 37.1278 44.4204 46.1054 36.1216 
44.5241 46.1529 35.1385 44.9111 46.5495 34.3467 45.3057 0.404809 33.637 
45.707 1.38845 33.5065 0.156978 1.58189 33.5866 23.479 5.49556 25.9015 
23.964 5.2625 25.0529 24.4117 5.1964 24.1678 25.3014 4.69796 23.8425 
26.2426 4.41447 23.6839 27.2103 4.30683 23.4324 27.8945 4.78521 22.8734 
28.2033 5.18787 22.0201 27.9839 5.96122 21.3849 27.8163 6.75628 20.8734 
27.3054 28.4429 3.82605 26.7423 28.008 4.57571 26.2113 27.4378 5.14801 
25.8115 26.887 5.79428 25.3223 27.5672 6.33384 26.016 28.235 6.03178 
26.544 28.6654 5.32935 26.015 29.4106 5.06838 25.1211 29.9656 5.21614 
24.2339 29.7262 5.64331 10.699 12.1709 42.1575 11.038 11.4528 42.752 
11.4617 10.6176 43.1278 11.5893 9.64364 43.2443 11.2117 8.86287 42.7638 
11.5389 8.30817 43.4398 12.2472 8.42159 44.3275 12.6149 8.594 45.194 
12.3092 9.17638 45.9497 11.8564 10.0441 45.6407 0.819647 28.14 13.7565 
46.7277 28.494 13.4538 45.7419 29.0521 13.7016 45.0087 29.6311 14.0281 
45.1763 30.7668 14.118 45.7379 31.4381 14.7121 46.5811 31.3999 15.2027 
0.541941 32.163 15.5207 0.882935 32.8778 15.0231 1.29298 33.3516 14.2451 
23.7724 4.66324 32.8855 24.7184 4.4293 33.1687 25.6856 4.54563 33.2897 
26.6572 4.37942 33.1534 27.4182 3.75722 33.3808 28.3832 3.83731 33.1293 
29.0777 4.42517 32.5357 29.5394 4.52115 31.6366 29.9378 5.20968 31.0487 
30.2962 5.6136 30.1482 18.103 6.8172 28.0336 17.8953 7.03991 27.0762 
17.8093 7.98003 26.7965 17.6081 8.89903 26.4506 18.3338 9.67213 26.0906 
18.9417 10.5252 25.9217 19.304 11.5592 25.8652 20.2101 12.1918 25.8197 
20.7777 12.9732 25.9245 21.6348 13.4069 26.2514 23.6661 46.7606 26.2727 
22.7231 46.7383 26.1 22.2641 0.873178 26.4728 21.9812 1.7949 26.0581 
21.2313 2.39726 25.9769 20.5117 3.18579 26.0065 19.8314 3.9224 25.8774 
19.5065 4.86302 25.6074 19.4953 5.73545 25.9765 19.3569 6.71048 26.2949 
15.6493 16.1217 40.1618 15.6217 16.104 39.2389 16.5111 16.257 38.6282 
17.401 15.908 38.4299 18.2267 15.4815 38.2484 19.2156 15.4027 38.4943 
19.9458 14.7328 38.219 20.6051 13.9961 38.1369 21.2921 13.185 38.4309 
21.4012 12.153 38.93 27.8045 5.30635 27.2204 27.0266 4.59039 27.295 
26.2488 4.0814 27.6751 25.8322 3.99774 28.5068 25.037 3.98213 29.0392 
24.5249 4.22366 28.2267 23.7554 4.61546 27.4805 24.0557 4.57351 26.5154 
24.5342 4.69939 25.6192 24.8476 4.34831 24.7461 45.464 31.1357 18.6708 
44.5948 31.5246 18.8417 44.0154 32.2482 19.1345 44.582 32.5121 19.8156 
45.6685 32.7936 19.7127 46.4648 33.3689 19.5652 46.5343 34.2847 19.769 
45.2701 34.4611 20.4891 45.1327 33.7454 21.1024 45.8988 33.0978 21.1628 
20.0279 8.60497 39.4039 19.587 7.79621 39.1411 18.7867 7.22503 39.2418 
18.1216 7.02918 39.9275 17.2355 6.62421 39.6808 16.666 6.36356 38.9539 
16.2692 6.64013 38.1763 16.3637 7.2651 37.4819 16.5294 7.68275 36.2359 
16.3548 8.37267 35.4567 25.3709 28.1011 3.65109 24.6827 28.7611 3.49261 
23.7217 28.9875 3.81995 22.8533 28.6675 4.06696 22.4314 27.8099 4.07459 
22.3617 26.8595 4.30414 22.3134 25.9845 4.62461 21.9254 25.0463 4.50504 
21.8047 24.063 4.27583 22.1171 23.4529 3.50441 23.6427 3.33864 28.2849 
[...]
POINT_DATA 5120
VECTORS mag_moments float
-1.92573 -1.10867 0.249839 -2.21599 -0.0325632 0.29719 -1.80855 -0.840548 1.01126 
-2.12213 -0.0536851 0.702613 -1.89085 0.20569 1.17574 0.12445 0.354423 2.20429 
-0.486043 2.17452 0.18763 -1.04056 1.87205 0.642385 0.652808 2.13835 0.0361453 
-0.577728 1.75757 1.25586 1.77163 1.35761 0.135008 1.98278 0.993218 -0.286564 
1.44898 1.06239 -1.33109 1.08116 1.63038 1.08303 1.52817 0.901673 1.36077 
-0.0702145 2.12114 0.704158 0.0220059 1.37179 1.7657 0.747109 -1.18557 1.74248 
0.858817 -0.686096 1.94723 0.26997 0.685189 2.11131 1.79317 -0.562869 1.21149 
0.222741 -0.308173 2.2035 1.34641 -1.76878 -0.242102 2.00377 -0.816228 -0.564512 
0.231355 2.21949 -0.142547 -0.536464 2.02475 0.782693 -0.694744 1.93278 0.884141 
-2.22789 -0.190548 0.0133168 -1.87498 -1.1642 0.359289 0.228745 -0.136388 -2.22015 
1.04959 1.82361 -0.756835 0.591595 1.03201 -1.8934 -1.7422 -0.293664 -1.37058 
-1.07726 0.520975 -1.88894 -2.09709 -0.755731 0.176306 -1.43348 -1.71418 -0.0819795 
-0.499076 -1.86249 1.13228 0.991678 -1.65833 1.12539 2.12988 0.0972148 0.6739 
1.04028 0.652236 1.8688 2.00782 -0.404336 0.897321 1.47354 -1.25507 -1.11958 
1.17766 -0.157822 -1.89426 1.19876 -1.10913 -1.52735 1.69756 -0.786142 -1.22486 
0.402111 -1.2651 -1.7994 0.0970239 -0.42173 -2.19379 -2.07396 -0.804461 0.226973 
-1.57762 1.44701 0.64596 -1.80038 0.344709 1.28055 1.42784 -1.71982 0.0591873 
1.60611 -1.37755 -0.723038 0.160022 -2.03523 -0.912263 -1.72041 -0.568644 -1.31029 
-1.14886 0.246867 -1.90241 -0.100879 -1.42833 -1.71746 0.0983037 -1.47017 -1.68195 
-1.865 -0.203381 -1.21673 -1.86339 -1.08145 -0.598529 -0.808564 -1.81745 -1.02132 
-0.787147 1.24283 -1.68398 -0.814102 1.58886 -1.34639 -0.982529 1.81385 -0.862897 
-1.49378 0.966379 -1.35453 -0.752981 1.94456 -0.807283 0.433036 1.43506 -1.65924 
0.585776 1.81202 -1.17194 0.642274 2.10748 0.38211 -0.0826322 2.12751 0.683267 
0.964344 2.00608 -0.213693 0.515289 -2.17575 -0.0242318 0.467676 -2.14261 -0.436452 
2.19802 -0.406333 0.0600625 2.2015 0.352764 0.170097 1.09743 -0.573685 1.86186 
0.31991 -0.126644 2.20944 -0.322311 0.14363 2.20805 1.49388 1.22712 1.12361 
0.634075 1.72536 1.27321 -0.930641 1.99107 -0.411784 -0.53258 1.3983 -1.66166 
-0.486274 1.47502 -1.60868 -1.03862 1.93508 0.420393 0.0122761 2.13782 0.655423 
-0.519365 1.67125 1.39183 1.3796 1.40722 1.05661 1.58899 1.33058 0.839446 
0.95642 -1.34097 1.5123 1.20704 -1.44655 1.20439 0.358316 -2.06521 -0.778802 
-1.54924 -1.60229 -0.180362 -1.454 -1.18068 -1.22142 -2.0155 -0.937227 -0.243641 
0.112837 2.00083 0.991935 -0.425042 1.95587 -0.996953 0.341322 2.13787 -0.559484 
0.953646 1.64422 1.17775 1.70034 1.42234 -0.292888 0.87906 1.94616 0.663096 
0.746183 0.694551 1.99018 0.564914 1.03697 -1.89883 -0.101955 2.19535 -0.412351 
-0.282779 2.2144 -0.128371 -0.322254 2.12978 0.600141 -0.305941 2.21022 0.146054 
1.23695 1.69854 -0.764785 0.205929 2.19259 0.387487 0.302517 1.91743 1.10992 
-0.343247 1.38398 1.72244 -0.891176 1.7781 1.02184 0.109673 -0.391804 -2.19874 
0.98404 0.837687 -1.82481 0.752195 -0.0895877 -2.10385 -0.376945 0.032771 -2.20382 
1.44773 -0.800875 -1.50422 1.61033 1.4321 -0.596594 2.16391 0.0744284 0.558532 
1.73349 1.29929 0.553969 0.928139 1.99766 -0.384608 0.24486 2.09879 -0.731512 
0.166893 0.0670984 2.22882 -0.777428 0.271815 2.07888 -1.59503 0.00347176 1.56713 
-1.63273 -1.46302 -0.440179 -1.30217 -0.45023 -1.76115 1.0183 -0.646929 -1.8827 
2.14524 -0.583645 -0.239369 1.71735 0.899582 1.11421 2.03151 -0.23121 0.90526 
2.15875 -0.503479 0.293812 2.19155 0.356283 -0.264915 1.95035 0.241352 -1.06672 
1.90953 0.617411 0.986154 1.78146 0.823068 -1.07189 2.23156 -0.115895 -0.0819145 
0.916213 1.42357 1.46082 0.415631 1.11037 1.89587 0.614595 0.991657 1.90759 
-1.57074 0.407258 1.53848 -0.239306 1.20578 1.86784 1.61293 -0.11819 1.54418 
1.80303 -0.0621494 1.32107 0.746723 0.853764 1.92704 0.534048 1.77094 1.25641 
0.790491 1.85534 0.965836 0.456217 1.63789 1.45231 0.0784202 2.22088 -0.248112 
1.77001 1.36581 -0.0406466 -1.11046 1.37405 -1.37072 -2.22907 -0.176724 -0.00462174 
0.170195 -1.51275 1.63787 -0.398599 -0.731154 2.07522 -0.134252 0.184202 2.22442 
1.31251 -0.500316 1.73983 0.645634 1.31615 1.68846 -0.765753 1.59362 1.36894 
0.231549 2.07369 0.803853 0.113026 1.78877 -1.33698 -0.772059 0.368732 -2.0659 
-1.97572 0.187936 -1.03015 0.241623 -2.16156 -0.518908 -0.257051 -1.24065 -1.84248 
-0.0361531 -1.66078 -1.49683 -2.18164 -0.405778 -0.275338 -1.74927 -0.0624482 -1.39145 
-2.00411 0.0870358 -0.987915 -1.48495 -1.60903 -0.45382 -1.85196 -0.363332 -1.19927 
-1.92168 -1.03518 -0.485316 -1.58811 -1.53971 0.327403 0.971554 -0.241264 1.99947 
0.543121 0.0213977 2.169 0.0250491 1.59029 1.57174 0.219273 1.99838 0.978971 
-1.13575 1.37184 1.35208 -1.47737 1.55371 0.635102 -1.32688 1.11264 1.41471 
-2.22176 -0.252435 -0.00734451 -1.81466 0.689063 -1.11005 -1.47271 -1.53951 -0.679008 
-1.5704 1.44343 -0.671102 -1.13796 1.19726 1.50719 -2.12517 0.675942 0.16354 
-2.14487 -0.490257 -0.398961 -0.89906 -2.02984 -0.267302 -1.7079 -0.919165 1.11276 
-1.31616 -1.79048 0.248812 -2.10756 -0.638767 -0.387495 -1.37831 -1.19123 -1.29662 
-1.42205 -1.67497 -0.415003 0.906597 -1.24335 -1.6224 -1.09112 0.867726 -1.74829 
-1.33505 -0.86143 1.5734 -0.211363 -1.62987 1.5162 0.935 -1.19805 1.64026 
1.93275 -0.479548 1.01711 1.62101 1.08678 -1.09144 0.73033 2.09762 -0.258094 
0.936926 0.101047 -2.0278 0.919488 -0.603776 -1.94679 2.12157 0.049997 -0.704591 
1.95847 0.994061 -0.419809 1.75082 1.34789 0.34328 1.63098 0.648115 1.38559 
1.54473 0.271815 1.59372 1.64605 0.770028 1.30291 0.541242 -0.333792 2.14374 
1.146 -0.383433 1.8814 0.89285 0.944296 1.81965 0.039967 0.800724 2.0874 
0.898013 1.86682 0.841751 -1.85771 1.21064 0.288575 -2.07767 -0.746249 -0.355526 
-1.89091 1.14758 -0.327885 -1.12947 1.87179 0.469793 -1.42582 1.17738 1.2573 
-1.37018 -1.16397 1.32958 -1.52778 -0.452318 1.56885 -1.83434 -1.23571 -0.328966 
-0.219847 -1.83394 -1.26029 -1.81725 1.1495 -0.613377 -0.637755 2.14302 -0.0271213 
-1.0497 1.70947 0.98784 -1.67975 1.35101 0.594296 0.488569 2.18204 0.000396108 
0.802418 1.88483 -0.896414 0.910568 1.64334 -1.21255 0.743023 2.08901 0.289751 
0.574434 1.79545 -1.20266 0.261373 2.13335 -0.616859 -1.62552 1.53465 0.0501383 
-1.8842 0.110948 1.19894 -0.212584 2.19334 0.379537 1.12134 1.76029 0.802478 
0.600745 0.391648 2.11795 -0.620923 1.91194 0.979258 -1.72137 1.4271 -0.0163609 
-1.19799 1.42795 -1.23522 -1.29992 1.41939 -1.13822 -0.240052 0.56117 -2.15115 
-1.72615 0.960779 1.04752 -1.01541 -1.80463 0.843943 1.03267 -1.71193 1.00144 
1.41559 -1.70566 -0.294646 1.28608 -1.71418 0.638412 1.78708 -0.291274 1.31206 
0.287857 1.52797 1.60699 1.66033 1.38855 0.561445 0.740128 2.10801 0.0922965 
2.18047 -0.165973 0.46691 -1.72835 0.188507 -1.40616 -1.59825 1.53401 -0.30399 
-1.09344 1.8988 0.446038 0.959972 0.160567 2.01312 0.405765 0.414147 2.15959 
-0.0791135 0.334791 2.20945 -0.226073 1.0574 1.95724 -1.54329 -1.29303 0.972785 
0.463539 -1.86173 1.14851 1.35513 -1.72151 0.447266 -0.811818 0.1499 -2.0781 
-1.42981 -0.266452 -1.69843 -0.638531 0.594319 -2.0589 0.14554 -0.345767 -2.20437 
-0.137385 -1.42713 -1.71593 -0.149248 -1.88799 -1.18878 0.971046 -1.57958 1.2498 
0.539071 -1.4768 1.59011 -0.694189 -1.97345 0.78968 -0.937954 -0.375524 1.9948 
2.04856 -0.705723 0.552594 1.85464 -0.144623 1.24072 0.414638 0.766719 2.05918 
2.17575 0.0852168 0.508781 0.88102 1.5844 -1.309 2.10203 0.248977 0.720752 
-0.117802 -1.88016 1.20463 1.02264 -1.46733 1.34207 -0.576475 2.01031 0.79141 
-0.70771 1.62925 -1.35819 1.67852 -0.624551 -1.33885 1.02316 -1.98823 0.0098001 
-0.0668195 -1.97477 -1.04682 -1.25415 -0.0869451 -1.8492 -0.667061 0.402257 -2.096 
0.427785 1.00804 -1.94958 1.02126 0.319169 -1.96346 1.2359 1.62586 -0.910564 
1.73248 1.41367 0.00661557 1.68627 -1.17267 -0.88392 0.555104 -0.216902 -2.15518 
1.37712 0.135385 -1.75647 1.15185 -0.691988 -1.78728 1.94419 -0.755764 -0.805583 
2.14638 0.0292237 -0.626265 2.13177 0.668109 -0.095777 1.67483 0.526836 -1.3847 
-0.00139232 0.96383 -2.01768 -1.08639 1.77667 -0.814362 -1.27833 1.75969 -0.519012 
-0.404202 -1.87283 1.15287 -0.926467 -1.2198 1.62903 -1.24571 -1.85631 0.048364 
-2.00177 0.104848 0.99092 1.18025 1.71905 0.807397 1.15284 1.51914 -1.16755 
-0.367511 1.16461 -1.87313 -0.880607 2.02857 -0.330792 -1.7263 0.646774 1.26553 
-2.04432 -0.800113 0.424943 1.61029 -0.959119 1.21945 0.311829 -2.06866 0.789553 
0.898665 -1.86082 0.85426 0.293842 -2.21019 -0.169442 0.354221 -1.90872 1.10965 
1.93483 -0.821976 0.762102 1.2252 0.614447 1.76673 -0.0193905 0.65085 2.13916 
-1.24901 1.79147 0.480214 -1.41918 0.683673 -1.58698 -1.8049 0.50746 -1.21853 
-1.714 1.43598 -0.0132301 -1.6794 1.30712 0.686341 -1.40129 1.58219 0.730114 
1.46759 1.47925 0.811175 1.76842 -0.196485 1.35428 1.66008 1.45759 0.345776 
0.571272 1.80917 -1.18345 1.17446 1.359 -1.33183 0.085305 1.51409 -1.64324 
1.86705 -1.10533 0.540721 2.11659 -0.651813 0.308545 2.19313 0.414972 -0.134102 
2.10789 -0.739988 0.0959098 1.79234 0.439745 1.26259 1.40963 1.13973 -1.30919 
1.5294 0.650654 -1.49586 0.761282 1.03605 -1.82949 1.09982 1.26009 -1.48411 
1.27999 0.370216 -1.79571 -0.784158 0.522637 -2.02779 -0.332969 1.75111 -1.35009 
-0.349221 2.17071 0.40749 0.997898 1.89686 -0.637263 1.95071 1.02659 -0.375283 
0.803732 2.07451 -0.224567 1.41647 1.55251 0.763749 0.642243 2.13608 -0.157184 
2.14987 0.608612 -0.0874743 1.40427 1.26732 1.19245 -2.23332 -0.0575386 0.0947629 
-2.10536 0.210396 0.723325 -0.68329 2.04358 0.59742 -1.03772 1.83001 -0.757752 
-1.37771 1.56452 -0.808821 -0.553683 1.93478 0.974718 -1.6384 1.28693 -0.812072 
-0.364031 2.13749 0.546478 0.00416379 1.67859 1.47726 -0.426285 2.19325 -0.0891406 
-0.110539 0.20046 -2.22432 1.07852 -0.0822694 -1.95704 1.21714 -0.229058 -1.86175 
2.0942 -0.443698 -0.646099 2.13213 -0.645963 -0.191658 2.158 -0.490047 -0.32074 
0.85202 -1.88848 -0.84126 1.81094 -1.26343 -0.352451 0.736007 -1.97969 0.734251 
-0.332802 -1.75347 1.34707 -1.53466 -1.37436 0.869459 -1.01929 -1.63775 -1.13085 
-0.772943 -0.884346 1.90276 -1.80609 -0.791775 1.0541 -2.10201 0.318099 -0.69308 
-0.466683 0.31839 -2.16352 -1.77345 0.29566 -1.32946 1.10469 -0.102897 -1.94141 
1.1106 -0.750715 -1.78969 1.06147 -0.371525 -1.93268 -2.20117 -0.387664 -0.067637 
-1.83084 1.25794 -0.256094 0.126299 1.55442 1.60244 1.88709 -0.606498 1.03492 
1.62411 0.870715 -1.26654 0.00718577 2.20214 -0.38799 -0.846403 1.73666 1.12589 
-0.768959 -1.43231 1.53532 -0.0617352 -2.19771 0.407738 2.18902 0.317349 0.32787 
-0.865773 -1.98732 0.548613 -1.89066 -1.10897 -0.442269 -1.57508 -1.39048 0.765304 
-1.52085 0.0161709 1.63913 -0.95935 -0.138839 -2.01504 -1.20365 0.300659 -1.86033 
-0.954539 1.82036 -0.880427 -0.22573 0.108805 -2.22198 0.857159 0.00986828 -2.06523 
-1.76318 0.754477 -1.14977 -0.458969 1.68985 -1.39059 -1.94359 0.245826 -1.07797 
-1.04826 -0.124323 1.97122 -1.78895 -1.33601 0.121408 -0.372805 -2.04281 0.829423 
-0.191335 -2.20627 0.30943 -0.0595463 -2.0897 -0.793477 0.244283 -2.13351 -0.623264 
-0.743516 -1.99484 -0.68396 1.56519 -1.58601 0.186412 0.197289 0.1461 -2.22255 
-0.884494 0.887397 -1.85208 -1.49399 0.729508 -1.49526 -1.38545 1.28515 -1.19537 
-1.2336 1.57414 -1.00016 0.219677 2.2053 0.297297 1.97145 0.713679 -0.7772 
1.49664 -1.53462 0.636392 1.4557 1.14434 -1.25356 2.00916 -0.761214 -0.619543 
-1.89791 -0.578484 -1.03117 -1.61093 -1.47862 0.467533 -2.19255 -0.288054 0.33129 
-0.805686 1.15969 1.73378 -2.11651 -0.694928 -0.193526 -1.85558 -0.293334 -1.21276 
-1.88676 -0.633952 1.01893 -1.81609 0.575721 1.17063 -1.23411 1.35034 -1.2859 
-1.71334 1.40107 0.318568 -1.02036 0.0960931 1.98737 -1.82772 1.28466 0.0953391 
-0.586031 2.12658 0.366341 -2.16865 -0.386371 -0.384301 -1.76887 -1.27052 -0.506835 
0.988026 -1.89119 -0.668741 -1.36213 -1.73103 -0.384876 0.149181 -1.73471 -1.40304 
0.845558 -0.343771 -2.04129 1.13272 0.951684 -1.67668 -1.9201 -0.0315112 1.14553 
-2.16892 0.258173 0.478677 -1.25536 1.01028 -1.55029 -2.2359 0.0261091 -0.00708412 
-1.28839 -0.365492 1.79066 -1.84237 0.0166323 1.26705 -2.08956 0.77712 -0.172693 
0.68641 2.12805 -0.015619 2.02898 -0.0664169 -0.937467 0.608276 -1.78796 -1.19717 
-2.20329 -0.15015 0.350682 -1.68646 1.39762 -0.450039 0.131367 1.13385 1.92279 
-1.53301 -0.252298 1.60818 0.166046 0.414903 2.19096 0.530308 0.777607 2.02832 
-0.159658 1.46512 -1.68164 -0.114877 1.28978 -1.82299 -0.16877 -0.458816 -2.18197 
1.83448 -0.363617 -1.22576 -2.22772 -0.181354 0.0662931 -2.13901 -0.0992506 -0.644045 
-1.14075 1.83035 -0.590335 -1.5333 1.44545 -0.748114 -1.20951 1.55379 -1.05963 
0.123009 1.44455 1.70239 -1.53631 1.54355 0.507154 -2.13043 0.579408 0.354306 
-2.19823 -0.292654 0.286584 -0.277501 -0.16515 2.21263 -0.610426 0.0169785 -2.15107 
0.890082 1.87479 -0.832425 1.00358 1.70521 -1.04167 -0.246624 1.51898 -1.6223 
0.75433 1.38618 -1.58414 -0.399626 1.35334 -1.73458 -1.51851 1.52074 -0.617638 
-2.10255 0.389181 -0.65409 -0.975166 0.937486 -1.7805 -2.04998 0.684518 -0.573608 
-2.06546 -0.765958 0.383634 0.0226446 -1.62682 1.53393 -2.09278 -0.643064 -0.454667 
-1.69026 0.13566 -1.45761 0.300804 0.539303 -2.14911 0.562497 2.16188 0.0992827 
1.65606 0.303933 1.47143 -1.04945 0.42174 1.92893 1.05044 -1.51855 1.26118 
-1.46349 -0.939762 1.40536 0.0973764 -2.19237 -0.428973 -0.928756 -1.75786 1.02339 
-1.97453 0.3446 0.991203 -2.10611 0.541728 0.520435 -0.258874 0.860496 2.04757 
0.146057 -0.825562 2.07295 0.978583 -1.31359 -1.52212 2.05487 -0.664345 -0.579801 
2.17338 -0.522742 -0.0561974 2.23159 0.140575 -0.015822 1.87335 -0.324879 1.17687 
1.65794 -1.50015 -0.0277981 1.15506 -1.67236 -0.932239 1.14735 -1.764 -0.756242 
0.542866 -0.91505 -1.96672 1.08476 -0.840354 -1.76553 -0.205634 -0.898533 -2.03724 
0.849089 -0.298422 -2.04695 -0.756405 0.0405984 -2.10385 0.342204 1.03316 -1.95333 
0.868143 -1.55865 1.34793 -1.69023 -0.490833 1.3792 -1.96975 0.0304668 1.0579 
-2.02063 -0.228622 -0.929944 -2.21191 0.324933 -0.043288 -1.99788 -0.990065 -0.168104 
-1.50182 -1.44623 0.808065 -0.369369 -1.97435 0.982598 0.25775 -1.92435 1.10926 
2.07919 -0.812434 0.130089 -1.23706 -1.50729 1.09442 0.797903 -1.73328 1.1658 
2.1422 -0.629079 0.123409 2.23006 0.000378746 -0.163855 0.245658 2.18595 0.401603 
0.629043 2.03365 0.684533 -1.12198 1.59621 1.09237 -1.60898 1.34639 0.773579 
-0.101828 2.21355 -0.299698 -2.21762 -0.225995 -0.176296 -0.755318 -1.91551 0.871958 
-1.29795 -1.81597 0.132577 0.300442 -1.73871 -1.37355 -0.594782 -2.03794 -0.702159 
-1.82565 -0.696986 -1.08683 0.573888 -1.34078 -1.69498 1.4533 1.32527 -1.06375 
-0.462804 1.31126 -1.75111 1.27749 1.5228 -1.02425 -0.86014 0.964767 -1.82466 
-0.114338 1.13661 -1.92225 -1.00629 1.16575 -1.62124 1.72708 1.38148 -0.32969 
1.92883 1.05369 -0.411527 -0.500607 2.11884 -0.509804 -1.78826 1.34142 0.0521904 
-2.15527 0.29199 -0.519167 -1.53908 1.24196 1.04344 0.355656 1.70843 1.39813 
1.48568 1.10719 1.25176 -0.194378 -0.59908 2.14553 -0.0595912 1.97409 1.04853 
-0.989909 0.250312 1.98933 -0.883336 -0.662299 1.9445 -1.5046 1.11323 1.22347 
-1.97753 0.295583 1.001 -1.67947 -0.365027 1.43043 -1.64328 -0.308507 1.48474 
-0.887349 -0.035247 2.05216 -0.775015 -0.624528 2.00233 0.889784 2.03882 -0.226941 
-0.0186461 2.2022 -0.387267 1.52685 1.30108 0.987881 1.39281 1.74757 -0.0778286 
2.15759 0.344498 0.475522 1.54575 -1.55509 0.438561 2.122 -0.114563 -0.695684 
0.244238 -1.86364 -1.21127 1.16218 -1.87116 -0.384827 -1.09241 -1.93796 -0.225677 
-0.507005 -1.77092 1.26759 -2.23469 0.0774681 0.0132887 -0.536157 -0.100138 2.16853 
-0.0497812 -0.48952 2.18126 0.773334 -2.02205 -0.559687 0.377489 -1.9918 -0.94352 
-0.758447 -0.939915 -1.88184 -0.916523 -1.03463 -1.7577 0.241277 -1.57056 -1.57326 
0.998052 -0.888114 -1.79308 1.94671 -1.09029 -0.146918 0.838158 -1.07754 1.77099 
0.573521 -1.06246 1.88209 0.544776 1.58298 1.48236 0.337016 1.01149 1.96553 
0.903309 1.44889 1.44387 0.863343 1.20977 1.67066 -1.40773 1.60766 0.658587 
-1.94271 0.656727 -0.891389 0.0495328 2.04611 -0.900554 -0.900448 -1.27133 -1.60403 
-2.09776 -0.75596 -0.167124 -1.89517 -0.691506 -0.964437 0.000615754 -1.72816 1.41896 
-1.65309 -0.45698 1.43473 -1.18726 -1.01371 1.60088 0.121576 -1.39427 1.74391 
-1.77406 -0.513855 1.26043 -1.5897 -0.650513 1.43167 -1.10534 1.92635 0.259597 
-1.55083 -1.52064 0.531573 -2.01127 -0.389661 -0.896069 -1.85838 0.0493086 -1.24258 
-1.64417 -0.117434 -1.51093 -1.90436 0.901535 0.748767 -1.94539 0.971703 0.520819 
-0.585926 -0.743639 2.02576 0.0394199 0.0879949 2.23399 0.818337 1.14363 1.73852 
1.28829 1.59761 0.887661 1.22079 0.0663797 1.87223 0.469838 -0.105882 2.18358 
0.21806 0.113149 2.22253 -1.56796 0.369908 1.5507 -1.98305 -0.135253 1.02431 
-1.98595 -0.00373554 1.02762 -2.22067 0.12101 -0.232336 -2.02583 0.597955 -0.733802 
-2.07633 0.54837 -0.62301 0.410482 -0.00412702 -2.19806 2.17591 -0.490673 -0.157061 
1.45712 1.63554 0.449226 0.823322 -1.18231 1.71006 -1.97518 0.82685 0.644189 
-0.95972 1.79099 0.933428 1.04137 0.939127 1.74172 0.67108 -1.12822 1.81019 
1.22266 -1.84177 0.336115 0.992106 1.852 0.765396 1.6364 1.20561 0.932051 
-0.909278 -1.87676 0.80683 -0.377812 -2.02547 0.868748 1.56495 -1.14969 -1.10868 
0.48188 -2.05171 -0.747177 1.84265 -1.10055 -0.627232 1.0607 -1.07508 -1.64898 
1.13557 -1.17578 -1.52578 0.618512 -1.73259 -1.27105 1.76023 -1.24119 -0.600853 
1.97209 -0.511924 -0.921304 1.54044 1.14594 1.14625 0.634496 1.82804 1.12057 
0.79206 1.97901 0.675383 0.166509 1.34649 1.77742 1.28514 0.0770223 1.82824 
1.20194 -0.125976 1.88135 0.337203 1.56446 1.56165 -1.22859 1.84631 -0.28585 
-2.17103 0.22038 0.487936 -1.74144 -1.15331 0.798287 -1.86538 -0.268241 1.2035 
-0.555469 -2.15636 0.203902 -0.785342 -1.62498 1.3201 -1.8768 -0.836416 0.882055 
-1.52934 0.486726 1.55699 -1.25182 1.44557 1.159 1.16371 1.89464 0.236935 
2.16551 0.530099 0.171986 0.558676 2.01271 0.798047 1.17827 1.54129 -1.1118 
-1.12039 1.07702 -1.60772 -1.17233 1.90352 -0.0473453 -1.88091 0.805572 -0.901795 
-2.13042 0.39703 0.551066 -1.86606 -1.22728 -0.107829 -2.05364 -0.752975 0.464318 
-1.75514 -0.624421 1.23676 -2.00958 -0.442208 0.875248 1.05789 1.96999 0.00119947 
0.249196 0.0553728 -2.22145 -0.746292 0.758463 -1.96667 -0.209028 -2.18123 -0.445603 
-1.00835 -1.17396 -1.61402 -0.594044 -1.4986 -1.54962 2.21375 -0.31496 -0.0101601 
1.97743 -0.60173 0.85304 1.15413 -0.393729 1.87429 -1.01225 1.66643 1.09469 
-1.41794 1.69929 -0.319117 -1.6691 1.22254 -0.848232 2.16827 0.418385 0.351483 
1.85824 0.356752 1.19149 1.80104 1.32508 0.0204549 2.11641 0.273297 0.667914 
1.60693 -0.393148 1.5044 1.44015 -1.6404 0.484807 1.6363 -0.475482 1.4479 
1.98278 -0.858442 0.575885 1.74398 -0.998373 0.980715 2.04463 -0.47579 0.770136 
1.59559 -0.972637 -1.22804 0.0338333 -1.58526 -1.57664 -0.163489 -0.219619 -2.21924 
0.0980556 -0.0286698 -2.23373 0.767208 -0.0835399 -2.09867 0.432214 0.456233 -2.14594 
0.457027 0.96124 -1.96651 0.124904 -0.619536 -2.14489 1.21065 -1.00572 -1.58834 
2.14706 -0.391845 -0.486404 2.06993 0.819725 0.208469 1.38308 1.69724 -0.454356 
1.26258 1.22913 -1.37664 0.687219 0.439655 -2.08193 -1.79723 1.32276 0.142415 
-1.62861 1.49745 0.324456 -2.06884 -0.0622214 -0.846182 -1.49942 -0.355768 -1.62024 
1.15827 0.195556 -1.90268 1.16072 0.25626 -1.89395 -0.309967 2.20183 -0.236366 
-0.400854 1.94892 -1.0203 -0.714122 1.77975 -1.15001 -1.88509 0.829508 -0.870841 
-0.495427 2.00272 -0.86236 -1.92195 0.871393 -0.739444 -1.55377 1.22242 1.04475 
1.32204 1.69164 -0.624969 -1.45487 1.51951 -0.757908 1.01116 1.98589 0.183842 
2.22777 0.121074 -0.149559 -0.844946 1.34322 1.57538 -1.50112 -0.934618 1.36862 
0.412153 -0.871376 2.01763 -1.72287 -1.4007 0.264123 0.29283 -0.254681 -2.20213 
1.00713 0.111334 -1.99331 1.71086 -0.53212 -1.33784 -0.273202 0.147598 -2.2144 
1.51092 0.0102183 -1.64833 1.60907 1.03604 -1.1565 1.98453 0.0325344 -1.02984 
1.52188 0.437627 -1.57872 -0.100055 1.37611 -1.75963 -0.250496 1.11742 -1.92058 
-0.517448 -0.395179 -2.13918 -0.883164 -1.00445 -1.79195 0.945912 -1.05193 -1.73167 