# vtk DataFile Version 4.2
vtk output
ASCII
DATASET UNSTRUCTURED_GRID
POINTS 5120 float
19.2872 11.1452 41.7758 18.4957 10.5055 41.7131 17.7057 10.2568 42.2 
16.7351 10.4657 41.8886 15.8856 11.0661 41.7457 15.1849 11.2679 42.3675 
14.6055 11.8619 42.926 13.9341 12.6084 42.8461 13.9 13.3602 43.7021 
14.4512 13.9992 44.2937 0.134133 37.0396 14.0178 0.588466 37.146 13.1149 
1.53667 37.5337 12.8722 2.42862 37.9551 13.2039 2.9555 37.793 14.0198 
3.45366 38.1641 14.7749 3.79488 38.8035 15.4062 3.76854 39.6628 15.9481 
2.84469 39.7509 16.3424 1.82072 39.897 16.703 26.1175 5.30688 32.7817 
27.1068 5.1658 33.1671 27.838 5.76835 33.2268 28.003 6.79251 33.1946 
27.6902 7.79415 33.0428 27.3404 8.63772 33.1458 26.6672 8.45754 33.9077 
26.1535 7.74144 34.2971 26.0196 6.85415 33.9393 25.7999 6.6834 32.992 
26.2475 40.1398 7.94064 26.8521 39.0985 7.94395 26.838 38.4085 7.2307 
26.1726 38.7065 6.4273 25.4061 39.4219 6.32722 25.0626 39.9973 7.03712 
25.2827 40.1202 8.21051 25.737 39.2087 8.29151 25.8983 38.3353 7.7455 
25.6573 37.9145 6.79113 18.9318 13.0586 44.0132 19.1211 12.4535 44.8303 
19.8822 11.7411 44.8341 19.7017 11.2417 44.0279 19.3352 10.4974 43.3612 
18.4516 10.1045 43.24 17.6792 9.58758 42.9884 17.8994 8.72077 42.8225 
18.7129 8.35473 42.3857 19.4685 8.78381 42.0015 8.63225 36.0474 16.4272 
9.08844 35.18 16.3404 9.51781 34.2677 16.2805 9.5064 33.4034 15.7426 
9.06386 32.6216 15.3434 8.80434 32.0244 14.4059 8.49905 31.8038 13.5243 
7.95886 32.4033 12.4938 7.37778 32.5495 11.6277 6.45552 32.3162 11.342 
23.6986 2.77751 28.2078 23.035 2.29587 27.493 22.5572 2.28476 26.6071 
21.9993 2.97534 26.1218 21.6893 3.83252 25.8413 21.4569 4.73332 25.5383 
21.4955 5.59391 25.083 21.676 6.88292 25.0923 21.4214 7.63761 25.8178 
21.9202 8.34269 26.2591 37.618 32.5508 1.01629 37.8334 31.5932 0.728696 
37.2904 30.7877 0.753917 37.8951 30.0894 1.17355 38.3593 29.3723 1.70698 
39.2487 28.9746 2.17702 40.1175 29.3309 2.68741 40.8156 29.3289 3.41146 
41.6715 29.8133 3.60697 42.1641 30.1456 2.84129 22.692 1.71934 24.3966 
22.5579 2.84125 24.1444 22.2405 3.79523 24.2197 21.895 4.76442 24.2608 
22.2131 5.74891 24.121 22.4548 6.62469 24.4285 23.1874 7.22271 24.7436 
24.0914 6.99454 24.8852 24.9267 6.44574 24.995 25.1789 5.60456 25.6338 
5.30006 32.0073 12.7585 4.32158 31.729 12.8093 3.42039 32.25 12.5181 
3.54953 33.262 12.1989 4.15347 33.9455 11.8781 4.79659 34.66 11.629 
5.0184 35.5571 11.2648 5.47685 36.4106 11.269 6.30285 36.8742 11.3519 
6.63712 37.6551 11.7713 4.4093 2.01276 33.3821 4.32919 2.67042 32.6993 
4.7697 3.48595 33.1471 5.05332 4.34199 33.447 5.16152 5.30438 33.6969 
4.47097 6.08054 33.883 3.59781 5.57278 33.6599 2.95268 5.94712 34.304 
2.63968 6.7941 34.5753 2.11173 7.65386 34.6865 23.9995 3.72462 28.2126 
24.6034 2.93067 27.7931 25.3797 3.24475 27.2395 25.6006 3.41793 26.3025 
26.2305 2.88078 25.7683 26.7886 3.05707 24.8966 27.6463 3.59691 24.2811 
28.6553 3.81802 24.5562 29.6767 3.35787 24.7852 30.1782 3.5349 23.779 
3.77894 37.8413 16.1788 3.09362 38.3184 16.572 2.16859 38.0345 16.2616 
1.63591 37.9168 15.5071 1.27808 37.4323 14.6084 1.28146 36.8402 13.7583 
2.27222 37.0189 14.2656 3.04419 37.0701 14.922 3.31965 36.9878 15.852 
3.68537 36.8746 16.7251 1.29004 3.25562 36.1603 1.97309 3.9548 35.9052 
2.79821 4.2504 35.3849 3.48946 4.57766 35.9515 3.9173 5.17468 36.6046 
4.69718 5.83161 36.8642 4.86774 6.67139 37.3369 4.75042 6.48907 38.3235 
4.2384 5.92152 38.8982 3.27106 6.10038 38.9699 1.11039 35.1963 17.4761 
1.37163 35.9407 17.9762 1.72641 35.8614 18.9204 1.56711 35.9345 19.9923 
1.86132 36.8104 20.4882 2.58843 37.3972 20.2993 3.27847 38.0871 20.3055 
3.45352 39.0437 20.0346 2.93109 39.9062 19.8262 2.03214 40.0335 19.326 
38.385 30.4769 0.37812 38.9251 30.095 1.09591 39.4898 30.0697 1.98188 
39.7634 30.2875 3.03342 40.397 30.2991 3.74135 41.0843 30.7182 4.4432 
41.8598 31.2696 4.1282 42.3639 32.2679 3.22763 42.2343 32.9653 2.48214 
41.7797 33.3793 1.57728 27.6459 7.91731 27.6649 27.6325 7.14899 26.4854 
27.9221 6.48226 25.806 27.849 6.6474 24.7602 27.2367 6.66607 23.8987 
26.3488 6.54009 23.3903 25.627 6.34807 22.6642 24.7366 5.95647 22.2447 
23.5418 5.56499 22.2606 22.6178 5.57191 22.643 6.23752 37.5158 14.0448 
6.40008 37.6917 14.9772 6.2831 38.3013 15.9434 5.992 38.9394 16.6884 
5.64573 39.7302 17.3931 4.8862 40.3979 17.5347 3.93024 40.765 17.7438 
3.18689 41.3213 17.9907 2.25033 41.3313 17.9554 1.2598 41.4922 18.1212 
28.5452 5.87842 21.0724 27.8105 6.39256 20.4708 26.9336 6.83057 20.1844 
26.4118 7.41888 20.7999 25.9892 7.93136 21.5833 25.0782 8.02729 21.6324 
24.1921 8.52296 21.6627 23.2964 8.76617 21.4694 22.6714 8.42589 20.749 
22.3857 7.18612 20.5874 25.0987 38.4297 6.09321 24.7163 39.0818 5.38638 
25.3305 39.8305 5.28816 25.5673 40.4802 6.29536 25.4332 40.9722 7.05804 
24.7566 41.0216 7.94492 23.9906 40.3707 7.87313 24.2002 39.4963 7.52539 
24.3565 38.5323 7.68497 24.8947 37.6919 7.39044 19.1193 8.08472 22.9233 
19.7166 8.87984 22.7853 19.9161 9.95578 22.9934 20.5321 10.8081 23.2133 
21.4957 10.8503 23.4322 22.1175 11.6287 23.8136 22.9943 12.0982 24.2585 
23.7424 12.5561 24.7305 24.3277 12.7433 25.6704 25.171 12.9676 25.9473 
7.09498 36.0274 18.4915 6.51881 37.0875 19.2096 6.79671 38.0183 18.9517 
5.97748 38.5709 19.0669 5.19289 38.9331 19.4415 4.32497 39.1198 19.5717 
3.58047 39.3009 18.99 2.74239 38.9751 18.7362 1.95219 38.4722 18.2222 
2.17005 38.0386 17.2489 19.2213 2.42286 23.1254 18.8597 2.70882 23.9415 
18.4642 3.50711 24.4566 18.5592 4.48552 24.5767 18.6 5.41265 24.4426 
18.709 6.37404 24.2368 18.9006 7.32522 24.1214 18.9198 8.33107 24.0689 
18.6894 9.36737 24.1371 18.8342 10.3214 24.2051 17.9405 10.1697 40.0214 
16.9972 10.2953 40.2048 16.2257 10.9728 39.9645 16.1781 11.9133 39.9546 
16.4382 12.7569 40.3671 16.5303 12.789 41.4253 16.0743 13.0342 42.2117 
15.4057 13.4932 42.6591 14.3006 13.6129 42.8327 13.7769 13.9828 42.0807 
18.0161 6.32449 28.0025 17.1421 5.76661 28.219 17.2028 4.71029 28.2736 
17.5815 3.98641 28.6976 18.471 3.49769 28.8733 19.4446 3.37974 29.2411 
20.2935 3.51306 29.6467 21.1055 3.78723 30.0894 21.9948 4.17524 30.2743 
22.8382 4.34463 30.7818 29.3798 9.97213 22.4127 28.5405 10.4749 22.7749 
28.1311 10.7645 23.7126 27.5287 11.4934 24.043 27.9878 12.2676 24.3551 
28.0531 12.8763 25.0969 27.9284 12.5451 26.0205 27.867 11.9323 26.8446 
27.8728 11.5622 27.7648 27.8492 11.1243 28.6518 12.1297 16.5064 41.3444 
11.5181 16.2231 40.6207 10.6163 16.4445 40.2092 10.3984 16.5013 39.2553 
10.8547 15.6568 38.7659 11.3004 15.0348 38.1768 11.7829 14.2126 37.7617 
12.5059 13.5339 37.2922 13.1028 12.9458 37.9086 13.0016 12.3594 38.7285 
10.422 11.4694 37.0232 9.95945 10.915 37.8354 9.10795 11.0257 38.5295 
9.39661 11.6605 39.1966 9.48187 12.5576 39.5696 9.9131 13.3819 40.0147 
10.7684 13.4472 40.4286 11.4674 13.51 41.1247 11.8861 13.4496 42.0802 
12.3076 12.6118 42.4221 44.1541 1.06011 36.5794 44.8581 0.979743 35.7015 
45.0839 1.64956 35.0016 44.2501 2.11029 34.9761 43.822 3.02063 34.6588 
44.1443 2.51651 33.8558 44.9992 1.99103 34.0061 45.9098 1.6658 34.2375 
0.0218237 1.83636 33.8415 0.638969 2.03141 33.029 23.7455 5.30392 26.1655 
23.5592 4.69207 25.4672 23.5195 4.25804 24.5459 24.3184 4.34192 23.9194 
25.2057 4.04666 23.5714 25.6431 3.5021 22.8917 26.6656 3.55169 22.3355 
26.8166 3.94765 21.3419 26.4123 4.40543 20.4969 25.8238 5.20286 20.5603 
28.1564 28.5369 1.03912 28.3007 27.6408 1.39574 28.5692 27.1267 2.3026 
28.5819 27.5232 3.22052 28.228 28.2868 3.6853 28.0582 29.2284 3.65746 
27.3763 29.9086 3.25179 26.5224 30.2914 3.50785 25.6675 30.5006 3.92867 
25.0404 30.7053 4.61064 11.0363 13.3413 42.7408 10.858 12.511 42.1618 
10.591 11.8097 41.5814 11.2305 11.0045 41.6663 11.5844 10.1285 41.9156 
11.9634 9.81161 42.7477 12.5592 9.94308 43.4921 13.0389 10.3926 44.2799 
14.0893 10.0862 44.1932 15.1219 10.296 44.4426 45.2881 30.0231 14.0255 
44.6252 30.4421 14.6774 45.0754 31.1428 15.2268 45.2127 32.0508 15.055 
45.4216 32.9847 15.0171 46.2538 33.4966 14.7939 0.339977 33.665 15.2358 
1.21463 34.1177 15.7035 2.2023 34.2183 15.5546 2.83852 33.6052 15.0444 
25.5209 4.50547 33.1401 26.473 4.19601 33.3202 27.4115 4.26599 33.2115 
28.214 4.80124 32.9321 28.8811 5.61085 32.8239 29.3454 6.26326 32.3039 
29.4877 6.91572 31.5932 29.7292 7.71145 31.0308 29.8133 7.34045 30.1702 
29.6324 6.83798 29.3319 17.9054 8.53009 28.445 17.6144 9.1818 27.6865 
17.6211 9.82892 26.9475 17.421 10.4291 26.2086 18.0087 11.2038 25.9088 
18.7228 11.9105 25.6515 19.5536 12.4754 25.5609 20.3929 13.0095 25.8544 
21.1374 13.3279 26.4193 21.4431 13.7245 27.4023 23.2385 0.901685 26.4584 
22.2698 1.1739 26.3013 21.6401 1.8689 26.0134 20.7311 2.12317 25.6407 
20.0214 2.49211 26.3971 19.6663 3.16712 26.898 19.3204 3.99551 27.2015 
19.2784 4.90834 26.9842 19.4999 5.81771 26.975 18.7953 6.45632 27.1646 
14.5537 17.6399 41.3547 14.8067 17.7669 40.4581 15.5505 17.5515 39.7955 
16.4605 17.3778 39.3912 17.4305 17.4025 38.8563 18.3765 16.8366 38.9932 
18.8485 16.1656 39.5204 19.7492 15.8898 39.889 20.3754 15.3891 40.4106 
20.5205 14.7725 41.1631 28.4682 5.12203 26.9127 27.4971 4.81704 27.0928 
26.6266 4.73008 27.6477 25.7593 4.48432 27.8897 24.9704 4.10292 28.114 
24.2231 4.797 28.166 23.7976 4.68682 27.3247 23.8808 4.0577 26.4161 
23.7374 3.61572 25.513 24.2687 3.44332 24.7412 45.968 30.4139 17.4908 
45.8889 31.2522 18.0825 46.0607 32.22 18.3795 46.3104 33.1717 18.4959 
46.5362 34.0611 18.923 0.221964 34.5348 19.6638 46.3857 35.3277 20.1222 
45.9138 35.5795 20.9598 45.1676 34.9876 21.1098 45.4 34.1238 20.7599 
21.6778 9.18339 39.1525 20.8204 8.59777 39.0868 20.0429 8.14169 39.3283 
19.0407 8.16045 39.504 18.2564 7.9901 38.9289 17.6447 8.27386 38.198 
17.0527 8.52602 37.4543 16.5979 9.34224 37.2674 16.0208 9.37645 36.5187 
16.1131 9.92265 35.6784 26.0862 28.6763 1.30324 25.6241 28.4109 2.09515 
24.9595 27.8063 2.61169 24.5692 27.8939 3.55401 24.5538 27.7889 4.47904 
24.5927 27.3655 5.4132 24.4434 26.504 5.99611 24.9598 25.8282 6.4355 
25.2425 24.9356 5.97752 25.6873 24.1872 5.57744 23.5945 3.28953 27.3667 
[...]
POINT_DATA 5120
VECTORS mag_moments float
-0.24551 -2.11396 -0.686228 -2.09134 -0.745823 -0.264651 -1.84267 -1.11291 0.60499 
-1.99363 -0.011145 -1.01258 -1.53233 1.28618 0.998862 -0.998607 0.680256 1.8815 
-1.08072 1.95754 -0.00775511 -1.10232 1.94334 0.0911128 0.229829 1.65604 1.48483 
1.02101 1.87282 0.670876 1.16914 -0.651068 -1.79143 1.98058 1.00369 0.26441 
2.11938 0.587674 0.403554 1.21227 1.30545 1.35137 -0.231569 -0.0717003 2.22289 
0.780853 1.71462 1.2043 1.40084 1.34405 1.10959 -0.822767 1.7909 1.05628 
-2.18288 -0.484758 -0.00556219 -1.92306 -0.242225 1.11497 1.50609 -1.34377 0.962267 
1.94416 0.615549 0.917244 1.02595 1.81617 0.805572 -0.55109 2.06765 -0.648954 
-0.363757 2.1969 -0.203265 -1.87354 1.15427 0.396864 -0.987229 -1.57155 1.24725 
-1.02759 -1.96292 0.301667 -0.625913 -0.962506 -1.91881 -0.607026 -1.82093 -1.14706 
1.25797 -1.77173 -0.527716 0.693085 -2.0572 -0.536258 -1.59972 -0.0321293 -1.56201 
-0.788191 0.829421 -1.92115 -1.17034 1.61355 1.01329 -1.13067 0.819899 1.74624 
0.781218 -2.05929 0.386047 0.898685 -2.03714 0.206008 -0.27257 -1.348 -1.76312 
0.0376933 0.101325 -2.23345 -1.42429 0.0800434 1.72192 1.00101 -1.91935 0.560421 
0.676728 -0.661827 -2.02584 -0.714692 -1.43021 -1.56324 -1.4158 -1.37767 -1.04764 
-2.2097 -0.291738 -0.179239 -0.730041 -2.0709 -0.422383 1.89709 -0.927779 -0.735022 
1.74802 0.298582 -1.36208 1.60761 1.32899 -0.805841 1.44796 -1.38557 -0.991767 
1.03777 -1.93849 0.406546 0.765202 -2.02609 -0.556276 -0.0216912 -1.99123 -1.01712 
-1.62111 -1.1092 -1.06849 -0.288906 -0.602525 -2.13389 -1.22554 1.09108 -1.51908 
-0.511942 -0.100605 -2.17435 -1.61577 0.157924 -1.53764 -2.23065 -0.0941937 -0.123836 
0.0881766 -0.49926 -2.17783 -1.77738 -0.53302 -1.24772 -1.49144 -0.337784 -1.63141 
-0.197195 2.22671 0.0534795 0.228271 1.7066 -1.42668 0.14777 2.1062 -0.736273 
-0.25116 2.07328 -0.799021 0.340835 2.1573 0.479482 0.560649 2.10685 0.496834 
2.10004 0.476288 0.602492 0.601209 -1.54599 -1.49949 -0.562909 -2.13031 0.380684 
0.50699 -1.89576 -1.07194 0.479336 -1.89732 1.08186 1.58934 -1.16187 1.06022 
2.01253 -0.367203 0.902709 1.97492 0.303706 1.00373 1.204 0.366064 1.84835 
1.52538 1.19468 -1.11621 1.51393 0.84956 -1.40935 -0.660107 1.90497 0.967139 
0.140084 2.22779 -0.131619 -1.51208 1.63555 -0.196411 -0.0858415 2.20549 0.358384 
0.574503 2.10543 -0.486955 1.33419 1.44237 1.06748 2.22334 -0.200239 0.129058 
2.05884 0.0856879 -0.868237 1.49703 -1.23748 1.10795 0.712505 -1.97738 0.763094 
-1.85913 -1.1641 0.434184 -2.1457 -0.627531 0.0468666 -1.87646 0.552496 -1.08336 
1.18713 1.62215 -0.979468 1.76286 1.36788 0.145758 0.642392 2.14083 -0.0646212 
0.342115 1.98878 -0.963186 2.01116 0.937476 0.276374 1.30817 1.75647 0.45111 
1.37053 1.43823 1.02622 0.277169 1.30505 -1.79444 -0.412344 1.92753 -1.05575 
1.22341 1.69701 0.789589 0.534212 2.16939 0.0914406 0.0108148 2.16113 0.573933 
-2.21181 0.148963 0.292765 -2.19205 -0.0733585 0.43537 -0.883918 1.58364 1.30797 
-0.679151 1.67466 1.31691 -0.607272 2.10495 0.447689 -0.216115 -1.92353 -1.11953 
2.17882 -0.349344 -0.361511 0.30703 1.20235 -1.86013 0.451966 -1.15706 -1.85928 
0.784195 -1.23703 -1.68962 1.72033 0.899634 -1.10956 1.99105 0.982911 0.263863 
1.92362 0.920096 0.673138 1.58663 -0.0363341 -1.57521 -1.10354 0.790283 -1.77698 
-1.52528 1.37255 0.888615 -0.998633 0.644909 1.89389 -0.210972 -0.815026 -2.07153 
-1.13205 -0.310696 -1.90314 -0.244732 -1.90648 -1.14256 1.32059 -1.62579 -0.782845 
2.02243 0.311507 0.901529 1.06275 0.414172 1.92329 0.811626 0.480037 2.02752 
1.8568 -1.05155 0.668241 1.94261 1.10475 -0.0760521 2.05041 0.837735 -0.306631 
1.64041 1.00162 1.14272 1.61668 0.585146 1.42966 0.986733 1.14239 1.64964 
0.712858 2.10668 0.231767 -0.358734 1.44266 1.67034 -0.812389 -1.73993 1.14572 
-2.02835 -0.0514012 0.939759 -2.03031 0.645044 -0.679515 0.148207 1.78025 1.3449 
1.36638 1.29549 1.20611 1.17142 -1.39631 1.29542 0.680747 0.999947 1.88061 
1.51698 1.569 0.486833 1.7246 1.42303 -0.0270841 1.64561 1.51382 -0.0184031 
-1.41147 1.72098 -0.214416 -2.03159 0.511102 -0.781924 -1.08344 0.0102995 -1.95603 
0.880266 -1.66767 1.20167 1.05152 -0.851997 1.78 1.3184 0.528028 1.72714 
1.05604 0.529035 1.89866 1.3519 0.931221 1.51829 1.64301 0.663936 1.36372 
1.32805 1.44773 -1.06788 0.109219 1.49162 -1.66227 -1.28115 0.719748 -1.68542 
-0.361121 -0.411485 -2.16801 0.609482 -1.36888 -1.65973 1.5761 -0.840557 -1.34513 
-0.0273701 0.126038 -2.23235 -0.334017 0.742308 -2.08265 -1.80837 -0.449423 -1.23605 
-1.76176 -0.123629 -1.37146 -2.04711 -0.894054 -0.100053 -1.72125 -1.38233 -0.355582 
-1.8153 1.23777 0.415453 -1.71632 -1.43013 0.0946957 -0.0316042 0.757773 2.10352 
-0.238028 1.14418 1.90636 -0.842173 0.749354 1.93112 -0.139892 1.68777 1.46008 
-0.933253 1.58206 1.2752 -2.05252 0.869251 0.177673 -1.62198 -0.0827251 1.53699 
-1.89612 1.16952 -0.192278 -2.1986 -0.365569 -0.180369 -2.0214 0.376471 0.878749 
-1.23289 0.819569 -1.6758 -1.39871 1.28227 -1.18296 -1.78075 1.31378 0.32082 
-0.276938 1.75492 1.35778 -1.8384 1.17784 0.482661 -2.15971 -0.0539548 0.576826 
-1.79484 1.33224 0.060866 -2.20873 0.26184 -0.230134 -0.549826 -1.67098 -1.3804 
-1.01187 -1.91803 0.545237 -1.68437 0.682756 -1.30259 0.440828 1.43714 -1.65538 
1.47646 1.33944 1.01289 0.439383 1.0281 1.93648 -0.885653 0.170702 2.04609 
-1.37161 -0.735251 1.60565 -0.458923 -1.9001 -1.08581 -0.0747431 -2.20721 -0.350173 
-0.327577 -2.156 0.494315 1.06382 -0.561476 -1.88495 2.07771 0.826331 0.0170088 
0.222198 2.22391 -0.0697378 1.00441 1.98586 0.218012 1.90419 1.17184 -0.0292373 
2.08971 0.623858 0.493889 0.132262 1.74338 1.39396 2.11277 0.213077 0.70058 
0.578555 0.445256 2.11353 1.15 1.03731 1.61291 2.05458 0.243395 0.848204 
-1.97471 0.193785 1.031 0.496372 2.08889 0.624617 -1.19964 1.86639 -0.278267 
-1.90864 0.910152 0.727121 -2.05239 0.145497 0.875514 -2.0737 0.81451 -0.190662 
-1.91249 0.145181 -1.14948 -1.70026 -0.707321 -1.26838 -0.467994 -1.63622 -1.45043 
-0.940625 -0.947629 -1.79366 -1.21656 0.538422 1.79725 -1.30281 1.22893 1.33881 
-0.408378 2.11966 0.583312 0.558114 2.16502 -0.0344661 0.792443 2.03024 -0.50018 
-0.472775 2.13412 -0.471192 -0.0233558 2.23268 -0.120718 -0.151264 2.20276 -0.353538 
0.501224 2.02742 0.798972 1.31703 1.80695 0.019308 -2.17967 0.162193 0.471936 
-2.02776 0.67366 0.659059 -0.690188 2.07794 0.453676 0.414512 2.19573 -0.0833976 
1.01259 1.19735 1.59405 -0.590564 -0.356042 2.12708 -1.73382 0.637985 1.25971 
-1.49912 1.30528 1.02415 -1.9695 0.123069 -1.05163 -0.525547 1.10751 -1.87009 
-1.96847 -0.988141 -0.385604 -0.652489 -2.06447 -0.558755 0.602192 -2.03383 0.707748 
1.41011 -1.5426 0.794966 2.17078 -0.0260078 0.535752 2.1321 -0.188117 0.647134 
1.82042 0.604506 1.1492 1.80746 1.07895 0.754289 1.47777 1.65589 0.272425 
1.94227 -0.844329 0.71742 -2.10216 0.546453 -0.53132 -0.0017998 0.43662 2.19303 
-0.811484 0.657913 1.97703 0.128011 2.2324 0.00119262 -0.130847 1.71067 1.43405 
0.383964 0.379132 2.16998 0.23059 -1.07009 1.94981 0.395246 -1.48102 1.62799 
0.728054 -0.822683 1.9476 0.377292 0.36238 2.17401 -1.64536 -0.578357 -1.3994 
-1.95585 -0.311862 -1.03798 -1.78436 0.339288 -1.3042 0.798216 -1.00301 -1.83216 
1.44807 -1.54563 -0.717036 0.728451 -1.74902 -1.18756 1.04556 -1.90959 -0.510167 
1.77541 -1.35177 0.143737 0.566836 -1.07583 1.87651 -0.256066 -0.832604 2.05942 
0.536999 -1.27556 1.7563 -2.01357 -0.312387 0.920849 0.164455 0.393437 2.19503 
0.392303 2.05583 0.78718 -0.00879667 2.17289 0.52771 2.2326 -0.0781884 0.0968939 
1.87156 -0.595874 1.06874 0.664209 1.28238 1.70714 0.924923 -1.29205 1.57325 
0.202792 -2.12603 0.662481 0.117747 -1.03316 -1.97957 1.07353 0.120571 -1.95781 
-1.67784 1.24684 -0.793875 -1.41973 1.31083 1.1252 -0.247113 0.488816 -2.16795 
2.05369 -0.840256 0.276264 2.10852 -0.625506 0.403611 2.14864 -0.615692 -0.0652644 
1.69836 0.679701 -1.28592 1.77765 -1.29262 -0.411198 0.419076 -1.74465 -1.33438 
-1.05826 -1.21857 -1.54763 1.11847 -1.02586 -1.64214 1.97306 0.172086 -1.03799 
1.36637 -0.795663 -1.58112 1.44903 -0.624705 -1.58431 1.58898 1.19429 -1.02411 
0.809344 -0.0250801 -2.08431 -1.49634 1.36245 -0.951159 -1.3946 1.69686 0.419216 
0.348988 -2.20861 -0.0161454 0.292181 -1.99688 0.962856 0.357591 0.279389 2.18954 
-1.96115 0.425494 0.986336 -0.598857 2.1126 0.422262 -1.65564 0.778298 -1.28573 
-1.87173 0.737223 -0.976282 -1.53784 0.727197 1.45129 -1.79629 0.295951 1.29837 
-1.0409 0.613715 1.88146 0.162397 -2.12491 -0.677054 0.238261 -1.56777 -1.5765 
-0.805115 -2.052 -0.37561 1.47943 -1.60693 0.478595 0.092029 -1.79336 1.33244 
0.903414 -0.0950365 2.04324 1.59164 1.00222 1.20923 2.05267 0.123617 0.87821 
2.2097 0.270936 0.209294 2.02503 0.242676 0.916718 -1.73315 -0.435501 1.34407 
0.0290714 1.83642 1.27543 0.884792 1.70884 1.13886 -0.496126 1.98422 -0.903721 
1.7963 1.31439 -0.213735 2.21638 -0.28864 0.0659219 0.944139 1.48612 1.37843 
2.13245 0.253326 0.623281 2.15873 -0.394657 -0.429107 0.565919 -0.491085 -2.10679 
1.69417 -1.43672 -0.256173 2.22534 0.167673 0.140474 2.04375 0.563816 -0.710786 
0.991878 1.97941 -0.313251 1.27026 1.23877 -1.36083 0.308434 1.42708 -1.69361 
0.905206 1.91601 -0.713791 0.152134 -0.141924 -2.22637 0.661759 -1.10455 -1.82813 
-0.432224 -2.04351 -0.798277 -1.87033 0.634691 -1.04834 0.633265 1.66272 -1.35438 
-0.677702 1.88153 -1.00028 0.679864 1.52771 -1.48454 1.93996 1.07896 -0.26911 
0.827493 1.72237 -1.16133 2.04625 0.897425 0.0865955 2.03223 0.88151 0.304926 
1.73001 0.151489 1.40858 1.91632 0.38867 1.08473 -2.06095 0.0341706 -0.866792 
-1.35756 1.77359 0.106753 -1.47021 1.57233 -0.60519 -2.02167 -0.0146484 -0.955327 
-1.38938 1.71307 0.367453 -0.43247 1.99835 0.905303 -1.3729 1.65587 0.610931 
0.626278 2.14636 -0.0305916 0.0989986 2.08183 0.810057 -1.14572 1.91659 -0.118391 
1.32564 1.38483 -1.15106 1.14568 -0.531186 -1.84533 1.34615 -0.958915 -1.50611 
2.1178 -0.19765 -0.689835 2.14507 0.0943476 -0.624331 0.649941 -2.13814 -0.0770994 
1.21013 -1.12655 1.50548 1.9309 -0.215352 1.1069 0.42344 -1.79581 1.26323 
-0.200597 -1.56204 1.58739 -1.73451 -1.21701 -0.714393 -0.862408 -1.44947 1.46809 
-1.86805 -0.215001 1.21003 -1.29961 -1.78779 0.33888 -1.97264 0.656359 0.823326 
-1.28065 0.449349 -1.77708 0.387874 -1.04929 -1.93612 0.0442806 -0.792665 -2.09039 
1.00251 -0.794909 -1.83387 -0.0976285 -0.281136 -2.21617 -0.157132 2.15219 0.586003 
-0.202717 1.80362 1.30608 0.529712 2.04541 0.731917 0.890066 1.56525 1.32581 
1.48848 1.42727 0.864465 0.166598 1.61702 1.53541 -0.600505 1.07851 1.86446 
-1.23266 -0.168041 1.85804 -0.38508 -2.04974 -0.806402 1.66297 -1.38778 -0.555512 
-1.60758 -1.55098 -0.10075 -1.80537 -1.10932 0.714181 -2.2148 0.22405 0.210833 
-2.21954 -0.270837 0.0173994 -1.27396 0.252534 -1.82023 -1.23252 -0.238548 -1.85041 
-1.78619 0.655933 -1.17443 -1.3626 1.25056 -1.25675 0.380139 1.66969 -1.43792 
-0.443096 0.702579 -2.07607 -1.61382 0.331651 1.51182 -1.44944 -0.829397 1.48702 
-1.67953 0.309903 1.44331 0.971013 -0.85494 1.82379 -0.147987 0.398358 2.19532 
-0.672773 -1.56608 1.44733 -0.204204 -1.90483 1.15323 1.665 -1.46203 0.300418 
1.20411 -1.88054 0.116942 1.80673 -0.789019 -1.05506 -1.73496 -0.613222 -1.27038 
-2.20574 0.259844 -0.259186 -1.96454 0.348214 -1.00961 0.0683917 1.82621 -1.28852 
-0.961328 1.99388 0.31671 0.684873 2.12297 -0.154761 1.36758 -1.4981 -0.940973 
0.602905 -0.539665 -2.08453 2.15684 -0.584719 -0.0783948 0.309186 -2.11253 -0.664549 
-1.9748 -0.652499 0.821215 -1.2185 -1.25226 -1.39538 -1.77185 -0.128351 -1.35796 
-1.75234 -0.860344 -1.09046 -2.15713 -0.58734 -0.0428454 -2.21469 0.278379 0.132931 
-2.21125 0.271668 -0.191286 -0.925254 1.46485 1.41354 -1.65541 1.34223 0.676786 
-1.54572 1.59959 0.228178 -0.560943 -2.15944 0.148913 -0.152226 -1.72576 -1.41372 
-1.80912 -0.770466 -1.06465 -1.86018 -1.15493 0.453748 -2.08307 -0.756287 0.298065 
-2.00615 0.922256 -0.353278 -0.669748 -1.71844 -1.26428 0.200399 1.687 -1.45391 
1.46935 1.17528 -1.20819 1.13048 -0.44794 -1.87653 -1.97667 1.0451 0.0234377 
-2.00332 -0.125753 0.985343 -2.15096 0.608032 0.0604622 -1.88887 1.13682 0.373937 
-1.49363 1.53316 -0.646899 -1.47567 1.52409 -0.706801 -0.29897 1.00677 -1.97409 
0.342307 0.44995 -2.16342 1.36114 0.754343 -1.6057 2.14541 -0.623913 -0.0891931 
-1.9361 -0.765356 0.815927 -1.70585 1.42644 0.235272 -1.3141 1.79598 -0.218212 
-0.620056 0.852611 1.97195 0.751677 0.810026 1.94392 -1.54384 -0.395731 1.56842 
-1.0643 -0.674548 -1.84723 0.894455 0.522305 -1.9817 -0.26946 1.15863 -1.8934 
-1.12582 1.47129 -1.25214 -2.14882 0.393959 -0.476835 -1.73251 -0.138765 -1.40682 
-0.938542 1.97142 -0.482341 -0.823611 2.06813 -0.210936 1.7675 1.34804 0.242329 
-1.32125 1.5109 -0.985634 -1.39162 1.65858 0.559021 -1.06939 0.703247 1.83353 
-1.32879 -0.271215 1.77786 0.8022 0.628384 1.99038 1.90144 0.632681 -0.992096 
-0.518658 2.08726 -0.611829 -1.30104 1.4957 -1.0345 -0.735258 1.95412 -0.800497 
0.0457465 2.12815 -0.684757 -0.0140831 1.8676 -1.22959 -1.20077 1.8842 -0.0891333 
-1.0422 1.93016 -0.433939 -1.47367 1.61387 -0.473008 -2.01517 0.967462 -0.0558755 
-1.37548 -1.75572 0.159675 -1.97319 -0.464025 0.944042 -1.52986 -0.247455 -1.61192 
-0.26382 1.4514 -1.68043 1.52009 1.21384 -1.10269 2.20276 -0.379971 0.058744 
2.05585 0.807846 0.347656 0.92126 -0.815481 1.86716 0.45005 -0.391515 2.15503 
-1.8929 -0.517715 1.07187 1.00836 -1.98809 -0.175261 1.1287 -1.9288 -0.0759831 
-0.312728 -2.04105 0.85808 0.213158 -1.98387 1.00936 1.20266 -1.03871 1.57311 
1.35412 0.881314 1.54585 1.0973 0.963934 1.69315 -0.266953 2.19433 -0.337152 
1.76768 0.955915 -0.980573 1.53196 1.13088 -1.17227 1.14904 -0.691134 1.78942 
1.04954 1.6977 1.00811 2.20661 -0.100486 -0.347503 1.23387 -1.79491 0.505819 
0.653777 -2.1153 -0.313158 2.21902 -0.0529422 -0.270431 0.206804 1.00718 -1.98565 
-0.0908779 -1.36861 -1.76597 -0.689607 -0.57076 -2.04907 -0.56339 0.173771 -2.15694 
-2.00339 0.934186 -0.337258 -1.22623 1.62442 0.926086 -1.58986 -0.520608 1.48369 
0.00122365 -0.248 2.22227 -2.17483 0.201211 0.479199 -0.543145 -1.60127 1.46319 
-1.95136 -1.07895 -0.167498 -1.89363 -1.13793 0.345362 -2.06583 -0.835897 -0.183386 
-1.61684 -1.54057 0.111627 -0.448742 -1.25042 1.79863 0.848423 -1.68658 1.19818 
1.48094 -1.02732 1.32342 1.85788 -0.586291 -1.09752 1.39985 1.69004 0.42917 
1.35803 1.69422 0.534221 0.207662 1.85419 1.23241 0.0814348 2.22979 0.146229 
-0.163471 2.21772 -0.234466 -1.01579 1.70798 -1.02517 0.473409 -2.17721 0.1888 
-0.0700065 -2.23402 -0.0653766 -0.465279 -2.13906 -0.456007 1.60409 -1.55459 -0.100701 
1.5589 -0.848706 -1.35997 0.260583 -1.90652 -1.13897 -1.18764 -0.203622 -1.88363 
-1.75937 0.389488 -1.32398 -0.0833053 1.21091 -1.87797 -0.138988 0.754925 -2.10018 
-0.690665 1.22807 -1.73632 -0.173628 1.17483 -1.89463 -0.272231 2.12059 -0.654988 
1.52664 1.41362 -0.819166 0.44184 2.19178 0.0298304 -1.43495 1.51673 -0.800265 
-1.56958 1.59191 0.0472806 0.230593 2.20587 0.284516 1.60013 1.11421 1.09459 
0.291528 0.955549 2.00048 1.334 1.7942 -0.0358938 0.133927 2.19056 -0.428392 
-1.06488 1.85333 0.656641 -0.506109 1.45002 1.62521 -1.45852 -0.300863 1.66799 
-2.09131 -0.358352 0.705698 -2.14495 0.624685 0.09461 -1.95639 -0.429895 0.993837 
-1.06064 -1.94798 0.283542 -1.53155 -1.06818 -1.23018 -0.959243 1.7097 1.07553 
1.00891 1.70713 -1.03334 2.13421 -0.43259 0.507943 2.01786 0.731958 -0.626493 
1.91588 0.272008 1.12045 1.82105 -0.785862 1.03257 0.74156 -2.02234 0.600177 
0.37518 -2.14494 0.508397 1.52991 -1.62107 -0.177462 -0.176923 -2.0948 0.761905 
-1.02646 -1.71665 0.999739 -0.5524 -1.53511 1.52915 0.714031 -2.00995 0.671017 
1.16625 -1.70051 0.864945 1.99394 -0.992891 -0.195841 1.93248 0.891592 -0.685996 
2.08464 -0.297082 0.75235 1.46566 -1.67422 -0.220919 1.74443 -1.37352 0.265333 
0.99182 -2.00405 0.00864167 0.375237 -0.285477 2.1858 0.114329 -0.381017 2.2004 
1.15819 0.0600402 1.9118 1.67173 0.7523 1.28038 2.20161 0.297967 0.253276 
0.843847 1.65662 -1.24239 0.90086 1.85402 -0.866643 -1.34943 1.2224 -1.29799 
-1.20383 0.270147 -1.86489 -1.58982 1.3357 -0.829673 -1.85756 -1.17661 0.406294 
-1.25284 -1.31639 1.30289 -0.306884 -1.57472 1.55759 -1.15028 -1.83763 0.547703 
-0.7137 -1.58752 -1.40372 0.581115 -1.73844 1.28068 -1.16619 -1.35822 1.33986 
-0.522709 -1.14299 1.84942 0.859643 -1.18553 1.68983 0.849628 -1.78433 1.04608 
-1.51683 -1.2899 -1.01753 -0.302409 0.303311 -2.19466 -0.653155 -0.0220558 -2.13843 
-1.62325 1.28344 -0.84726 0.952831 1.87753 0.752993 -0.797386 1.01079 1.82824 
-0.682591 0.292141 2.1092 2.01154 -0.952517 0.215427 -1.03982 0.998289 1.70944 
-0.854255 -0.714025 1.93918 1.25007 1.16265 1.44415 -1.42506 0.512023 1.6453 
-1.72882 1.2192 0.724394 -2.20511 -0.349802 -0.122941 -2.03264 0.905041 -0.222015 
-2.22737 -0.137123 -0.141465 -1.87331 -0.214523 1.20196 -1.86415 -1.11637 0.527865 
-1.97749 -0.497207 -0.917784 -2.04392 -0.905583 0.048029 -1.24425 -1.85389 0.122109 
-1.03345 -1.02363 -1.69828 -1.96858 0.621637 0.859215 -0.605964 1.83695 -1.12179 
1.30338 1.7873 0.326733 0.568535 0.781271 2.01653 1.20535 1.25938 1.40039 
1.43229 0.312464 1.68847 1.20302 -1.87679 -0.174295 2.20921 -0.0821777 0.335621 
0.930025 -2.03343 -0.0140212 0.946526 -1.91889 0.649572 1.44929 -1.60773 -0.56104 
1.61693 -0.967261 -1.20413 0.907492 -1.30989 -1.56865 1.16218 -1.31994 -1.38098 
1.16769 -1.5111 -1.16321 0.823556 -1.90011 -0.843407 -0.6957 -1.44983 -1.5537 
-2.11829 0.114964 -0.706852 2.18392 0.480024 0.00867772 -0.0323719 1.82442 1.29245 
0.541693 1.63409 1.427 0.166165 1.76984 1.35649 1.13429 0.969524 1.66536 
-0.0310728 1.13747 1.92489 -0.571711 1.11652 1.85109 -1.09136 1.91401 0.381455 
-2.15332 0.309264 0.517259 -2.06089 0.827124 0.261932 -1.17705 -1.27882 1.40683 
-1.37093 -1.60504 0.737834 -1.3019 -0.795618 1.63464 -1.17445 0.519403 1.83054 
-1.90267 1.14154 -0.277039 0.187644 0.51869 2.16697 1.1297 1.20485 1.50735 
1.83465 0.868828 -0.937662 -0.97858 1.19927 -1.61373 -0.736799 2.10971 0.0790137 
1.05221 1.9411 -0.353549 0.474614 1.82963 -1.19466 -0.327198 1.31483 1.77881 
-1.89283 -0.186108 1.17582 -1.99394 -0.491108 0.884886 -0.863202 -2.05547 0.173044 
-1.78734 -0.935887 0.964123 -1.53291 0.745434 1.44725 -0.00172724 2.236 -0.0173475 
0.85979 1.71223 -1.15283 -1.06228 1.54589 -1.21729 -1.44497 0.443574 -1.64781 
-1.8748 -0.323096 -1.17505 -0.671236 -2.09933 -0.377169 0.225838 -1.90182 1.15416 
1.53996 -0.367386 1.5791 0.855018 -1.45014 1.47174 1.29562 1.02936 1.50392 
0.856128 1.98083 0.585954 0.15286 1.80108 -1.31633 0.439342 1.96404 0.974431 
1.23516 1.80097 0.480493 1.73885 0.961566 1.02558 1.93209 0.365562 1.0646 
1.93057 0.261812 -1.09742 2.21562 3.61938e-05 0.301729 1.33646 -1.00893 1.48187 
0.0405891 -1.85074 1.25424 -0.0551756 -2.23406 0.0768927 1.32597 -1.75243 0.413265 
0.188924 -1.79974 -1.31349 0.552127 -0.220971 -2.15553 1.1087 -0.326956 -1.91413 
-0.229941 0.884408 -2.04082 -0.533876 0.974779 -1.9403 0.551802 0.653657 -2.06597 
1.87074 1.2116 -0.179844 1.4079 1.55657 -0.771302 0.944628 0.677764 1.91006 
0.635405 0.219672 2.13261 1.26631 -0.465591 -1.78317 0.957503 0.89727 -1.81055 
0.207689 1.09498 -1.93852 -1.49373 0.29654 -1.63732 -1.69083 0.676873 -1.29729 
-2.02705 -0.201056 0.922305 -1.21297 -0.00862095 1.87847 -2.12621 -0.312978 0.61747 
-1.4328 -0.603895 -1.60698 -1.08634 -0.512246 -1.88613 -0.825832 1.52342 -1.41322 
-0.904012 2.01161 -0.36903 -1.22757 1.50852 -1.10337 -0.532896 2.0924 0.581281 
-1.38379 1.64565 -0.613973 -1.29096 1.36856 -1.2085 -0.983663 1.75333 0.9789 
-1.22532 1.85199 -0.262159 -0.403811 2.15533 -0.437582 1.42959 1.71813 -0.0654497 
0.718002 1.87522 -0.98389 0.502358 1.63209 1.44358 -2.19377 0.431377 0.0360159 
-1.65721 -1.02232 1.09932 -0.954737 -1.34848 1.50668 -1.33015 -1.15608 1.37629 
0.579461 -2.01825 -0.768685 0.58556 0.42045 -2.11668 1.69165 0.330904 -1.42437 
2.15783 0.554337 -0.191037 1.55069 1.58569 -0.284528 1.35389 0.844887 -1.56625 
0.32895 -0.809712 -2.05819 0.121517 -1.2458 -1.85289 -0.128202 -1.18272 -1.89334 
0.426015 -1.48802 -1.61379 -1.35838 -0.353665 -1.74061 0.186809 -2.22814 0.0217371 
0.944945 -1.16703 1.65684 1.5408 -1.49519 0.624768 -2.03326 0.0255644 0.930153 